 Entering Gaussian System, Link 0=g16
 Input=meso-TS_76_2_pcm.com
 Output=meso-TS_76_2_pcm.log
 Initial command:
 /scratch/scicomp/CentOS/7.3.1611/Haswell/software/Gaussian/g16/l1.exe "/scratch/bochen/cyclohexadiene-dimerization/wb97xd-def2tzvp/xp-pcm/meso/Gau-14148.inp" -scrdir="/scratch/bochen/cyclohexadiene-dimerization/wb97xd-def2tzvp/xp-pcm/meso/"
 Entering Link 1 = /scratch/scicomp/CentOS/7.3.1611/Haswell/software/Gaussian/g16/l1.exe PID=     14149.
  
 Copyright (c) 1988-2017, Gaussian, Inc.  All Rights Reserved.
  
 This is part of the Gaussian(R) 16 program.  It is based on
 the Gaussian(R) 09 system (copyright 2009, Gaussian, Inc.),
 the Gaussian(R) 03 system (copyright 2003, Gaussian, Inc.),
 the Gaussian(R) 98 system (copyright 1998, Gaussian, Inc.),
 the Gaussian(R) 94 system (copyright 1995, Gaussian, Inc.),
 the Gaussian 92(TM) system (copyright 1992, Gaussian, Inc.),
 the Gaussian 90(TM) system (copyright 1990, Gaussian, Inc.),
 the Gaussian 88(TM) system (copyright 1988, Gaussian, Inc.),
 the Gaussian 86(TM) system (copyright 1986, Carnegie Mellon
 University), and the Gaussian 82(TM) system (copyright 1983,
 Carnegie Mellon University). Gaussian is a federally registered
 trademark of Gaussian, Inc.
  
 This software contains proprietary and confidential information,
 including trade secrets, belonging to Gaussian, Inc.
  
 This software is provided under written license and may be
 used, copied, transmitted, or stored only in accord with that
 written license.
  
 The following legend is applicable only to US Government
 contracts under FAR:
  
                    RESTRICTED RIGHTS LEGEND
  
 Use, reproduction and disclosure by the US Government is
 subject to restrictions as set forth in subparagraphs (a)
 and (c) of the Commercial Computer Software - Restricted
 Rights clause in FAR 52.227-19.
  
 Gaussian, Inc.
 340 Quinnipiac St., Bldg. 40, Wallingford CT 06492
  
  
 ---------------------------------------------------------------
 Warning -- This program may not be used in any manner that
 competes with the business of Gaussian, Inc. or will provide
 assistance to any competitor of Gaussian, Inc.  The licensee
 of this program is prohibited from giving any competitor of
 Gaussian, Inc. access to this program.  By using this program,
 the user acknowledges that Gaussian, Inc. is engaged in the
 business of creating and licensing software in the field of
 computational chemistry and represents and warrants to the
 licensee that it is not a competitor of Gaussian, Inc. and that
 it will not use this program in any manner prohibited above.
 ---------------------------------------------------------------
  

 Cite this work as:
 Gaussian 16, Revision B.01,
 M. J. Frisch, G. W. Trucks, H. B. Schlegel, G. E. Scuseria, 
 M. A. Robb, J. R. Cheeseman, G. Scalmani, V. Barone, 
 G. A. Petersson, H. Nakatsuji, X. Li, M. Caricato, A. V. Marenich, 
 J. Bloino, B. G. Janesko, R. Gomperts, B. Mennucci, H. P. Hratchian, 
 J. V. Ortiz, A. F. Izmaylov, J. L. Sonnenberg, D. Williams-Young, 
 F. Ding, F. Lipparini, F. Egidi, J. Goings, B. Peng, A. Petrone, 
 T. Henderson, D. Ranasinghe, V. G. Zakrzewski, J. Gao, N. Rega, 
 G. Zheng, W. Liang, M. Hada, M. Ehara, K. Toyota, R. Fukuda, 
 J. Hasegawa, M. Ishida, T. Nakajima, Y. Honda, O. Kitao, H. Nakai, 
 T. Vreven, K. Throssell, J. A. Montgomery, Jr., J. E. Peralta, 
 F. Ogliaro, M. J. Bearpark, J. J. Heyd, E. N. Brothers, K. N. Kudin, 
 V. N. Staroverov, T. A. Keith, R. Kobayashi, J. Normand, 
 K. Raghavachari, A. P. Rendell, J. C. Burant, S. S. Iyengar, 
 J. Tomasi, M. Cossi, J. M. Millam, M. Klene, C. Adamo, R. Cammi, 
 J. W. Ochterski, R. L. Martin, K. Morokuma, O. Farkas, 
 J. B. Foresman, and D. J. Fox, Gaussian, Inc., Wallingford CT, 2016.
 
 ******************************************
 Gaussian 16:  ES64L-G16RevB.01 20-Dec-2017
                 3-Aug-2020 
 ******************************************
 %nproc=24
 Will use up to   24 processors via shared memory.
 %mem=48GB
 ----------------------------------------------------------------------
 #p uwb97xd guess=mix def2tzvp # scrf=(iefpcm,solvent=Cyclohexane,read)
  nosym 6d 10f
 ----------------------------------------------------------------------
 1/38=1,40=2,172=1/1;
 2/12=2,15=1,17=6,18=5,40=1/2;
 3/5=44,7=101,8=22,11=2,25=1,30=1,70=2203,72=17,74=-58,116=2/1,2,3;
 4/13=-1/1;
 5/5=2,38=5,53=17/2;
 6/7=2,8=2,9=2,10=2,28=1/1;
 99/5=1,9=1/99;
 Leave Link    1 at Mon Aug  3 13:57:07 2020, MaxMem=  6442450944 cpu:               1.8 elap:               0.1
 (Enter /scratch/scicomp/CentOS/7.3.1611/Haswell/software/Gaussian/g16/l101.exe)
 -----------------------
 endo-2 xp-pcm for eta=3
 -----------------------
 Symbolic Z-matrix:
 Charge =  0 Multiplicity = 1
 6                    -3.1179   -0.43907   0.28272 
 6                    -0.81852  -0.27359  -1.3649 
 1                    -4.03333  -0.51712   0.85772 
 1                     0.10337  -0.20137  -1.92934 
 6                     1.2289    1.44101   0.87645 
 6                     0.81852   0.27359   1.3649 
 1                     0.64341   2.33995   1.02944 
 1                    -0.10337   0.20137   1.92934 
 6                     1.6454   -0.97004   1.20615 
 1                     2.25973  -1.0838    2.10902 
 1                     0.99746  -1.8471    1.16556 
 6                     2.4852    1.53568   0.1308 
 1                     2.8865    2.5174   -0.09068 
 6                     3.1179    0.43907  -0.28272 
 1                     4.03333   0.51712  -0.85772 
 6                     2.54629  -0.92942  -0.03076 
 1                     1.97376  -1.23029  -0.9167 
 1                     3.3478   -1.66337   0.07074 
 6                    -1.2289   -1.44101  -0.87645 
 1                    -0.64341  -2.33995  -1.02944 
 6                    -2.4852   -1.53568  -0.1308 
 1                    -2.8865   -2.5174    0.09068 
 6                    -1.6454    0.97004  -1.20615 
 1                    -0.99746   1.8471   -1.16556 
 1                    -2.25973   1.0838   -2.10902 
 6                    -2.54629   0.92942   0.03076 
 1                    -3.3478    1.66337  -0.07074 
 1                    -1.97376   1.23029   0.9167 
 
 ITRead=  0  0  0  0  0  0  0  0  0  0  0  0  0  0  0  0  0  0  0  0
 ITRead=  0  0  0  0  0  0  0  0
 MicOpt= -1 -1 -1 -1 -1 -1 -1 -1 -1 -1 -1 -1 -1 -1 -1 -1 -1 -1 -1 -1
 MicOpt= -1 -1 -1 -1 -1 -1 -1 -1
 NAtoms=     28 NQM=       28 NQMF=       0 NMMI=      0 NMMIF=      0
                NMic=       0 NMicF=      0.
                    Isotopes and Nuclear Properties:
 (Nuclear quadrupole moments (NQMom) in fm**2, nuclear magnetic moments (NMagM)
  in nuclear magnetons)

  Atom         1           2           3           4           5           6           7           8           9          10
 IAtWgt=          12          12           1           1          12          12           1           1          12           1
 AtmWgt=  12.0000000  12.0000000   1.0078250   1.0078250  12.0000000  12.0000000   1.0078250   1.0078250  12.0000000   1.0078250
 NucSpn=           0           0           1           1           0           0           1           1           0           1
 AtZEff=  -0.0000000  -0.0000000  -0.0000000  -0.0000000  -0.0000000  -0.0000000  -0.0000000  -0.0000000  -0.0000000  -0.0000000
 NQMom=    0.0000000   0.0000000   0.0000000   0.0000000   0.0000000   0.0000000   0.0000000   0.0000000   0.0000000   0.0000000
 NMagM=    0.0000000   0.0000000   2.7928460   2.7928460   0.0000000   0.0000000   2.7928460   2.7928460   0.0000000   2.7928460
 AtZNuc=   6.0000000   6.0000000   1.0000000   1.0000000   6.0000000   6.0000000   1.0000000   1.0000000   6.0000000   1.0000000

  Atom        11          12          13          14          15          16          17          18          19          20
 IAtWgt=           1          12           1          12           1          12           1           1          12           1
 AtmWgt=   1.0078250  12.0000000   1.0078250  12.0000000   1.0078250  12.0000000   1.0078250   1.0078250  12.0000000   1.0078250
 NucSpn=           1           0           1           0           1           0           1           1           0           1
 AtZEff=  -0.0000000  -0.0000000  -0.0000000  -0.0000000  -0.0000000  -0.0000000  -0.0000000  -0.0000000  -0.0000000  -0.0000000
 NQMom=    0.0000000   0.0000000   0.0000000   0.0000000   0.0000000   0.0000000   0.0000000   0.0000000   0.0000000   0.0000000
 NMagM=    2.7928460   0.0000000   2.7928460   0.0000000   2.7928460   0.0000000   2.7928460   2.7928460   0.0000000   2.7928460
 AtZNuc=   1.0000000   6.0000000   1.0000000   6.0000000   1.0000000   6.0000000   1.0000000   1.0000000   6.0000000   1.0000000

  Atom        21          22          23          24          25          26          27          28
 IAtWgt=          12           1          12           1           1          12           1           1
 AtmWgt=  12.0000000   1.0078250  12.0000000   1.0078250   1.0078250  12.0000000   1.0078250   1.0078250
 NucSpn=           0           1           0           1           1           0           1           1
 AtZEff=  -0.0000000  -0.0000000  -0.0000000  -0.0000000  -0.0000000  -0.0000000  -0.0000000  -0.0000000
 NQMom=    0.0000000   0.0000000   0.0000000   0.0000000   0.0000000   0.0000000   0.0000000   0.0000000
 NMagM=    0.0000000   2.7928460   0.0000000   2.7928460   2.7928460   0.0000000   2.7928460   2.7928460
 AtZNuc=   6.0000000   1.0000000   6.0000000   1.0000000   1.0000000   6.0000000   1.0000000   1.0000000
 Leave Link  101 at Mon Aug  3 13:57:08 2020, MaxMem=  6442450944 cpu:               2.4 elap:               0.1
 (Enter /scratch/scicomp/CentOS/7.3.1611/Haswell/software/Gaussian/g16/l202.exe)
                          Input orientation:                          
 ---------------------------------------------------------------------
 Center     Atomic      Atomic             Coordinates (Angstroms)
 Number     Number       Type             X           Y           Z
 ---------------------------------------------------------------------
      1          6           0       -3.117905   -0.439074    0.282722
      2          6           0       -0.818524   -0.273593   -1.364901
      3          1           0       -4.033330   -0.517117    0.857717
      4          1           0        0.103373   -0.201366   -1.929344
      5          6           0        1.228903    1.441011    0.876454
      6          6           0        0.818524    0.273593    1.364901
      7          1           0        0.643410    2.339945    1.029443
      8          1           0       -0.103373    0.201366    1.929344
      9          6           0        1.645400   -0.970035    1.206150
     10          1           0        2.259726   -1.083800    2.109018
     11          1           0        0.997461   -1.847095    1.165558
     12          6           0        2.485196    1.535682    0.130802
     13          1           0        2.886502    2.517404   -0.090679
     14          6           0        3.117905    0.439074   -0.282722
     15          1           0        4.033330    0.517117   -0.857717
     16          6           0        2.546291   -0.929423   -0.030764
     17          1           0        1.973763   -1.230286   -0.916701
     18          1           0        3.347800   -1.663372    0.070740
     19          6           0       -1.228903   -1.441011   -0.876454
     20          1           0       -0.643410   -2.339945   -1.029443
     21          6           0       -2.485196   -1.535682   -0.130802
     22          1           0       -2.886502   -2.517404    0.090679
     23          6           0       -1.645400    0.970035   -1.206150
     24          1           0       -0.997461    1.847095   -1.165558
     25          1           0       -2.259726    1.083800   -2.109018
     26          6           0       -2.546291    0.929423    0.030764
     27          1           0       -3.347800    1.663372   -0.070740
     28          1           0       -1.973763    1.230286    0.916701
 ---------------------------------------------------------------------
                    Distance matrix (angstroms):
                    1          2          3          4          5
     1  C    0.000000
     2  C    2.833584   0.000000
     3  H    1.083842   3.915905   0.000000
     4  H    3.914891   1.083377   4.997972   0.000000
     5  C    4.773047   3.486473   5.614776   3.440454   0.000000
     6  C    4.144210   3.229730   4.941958   3.404273   1.330359
     7  H    4.735824   3.834151   5.483082   3.937553   1.083647
     8  H    3.494128   3.404273   4.136323   3.885153   2.102441
     9  C    4.880954   3.628534   5.707409   3.577712   2.468869
    10  H    5.715763   4.711706   6.441230   4.662287   2.992738
    11  H    4.438261   3.489546   5.212722   3.617490   3.308895
    12  C    5.942851   4.052798   6.872668   3.596473   1.463978
    13  H    6.703215   4.810460   7.615238   4.303279   2.200364
    14  C    6.322673   4.144210   7.304455   3.494128   2.432261
    15  H    7.304455   4.941958   8.311640   4.136323   3.424287
    16  C    5.694017   3.678589   6.652128   3.178446   2.859635
    17  H    5.290531   2.985467   6.304152   2.362727   3.302431
    18  H    6.584010   4.620693   7.510946   4.082169   3.843968
    19  C    2.432261   1.330359   3.424287   2.102441   4.173673
    20  H    3.384998   2.100716   4.286681   2.437422   4.629647
    21  C    1.331868   2.427687   2.100325   3.422841   4.865162
    22  H    2.099972   3.380819   2.429961   4.287642   5.763944
    23  C    2.524005   1.501844   3.489037   2.225623   3.580597
    24  H    3.438076   2.137539   4.347372   2.447733   3.048182
    25  H    2.962438   2.115015   3.809216   2.695955   4.605559
    26  C    1.504330   2.525927   2.233297   3.484455   3.902436
    27  H    2.144310   3.438593   2.467087   4.340766   4.678978
    28  H    2.120791   2.966806   2.701613   3.803169   3.209843
                    6          7          8          9         10
     6  C    0.000000
     7  H    2.100716   0.000000
     8  H    1.083377   2.437422   0.000000
     9  C    1.501844   3.462828   2.225623   0.000000
    10  H    2.115015   3.937003   2.695955   1.097957   0.000000
    11  H    2.137539   4.204186   2.447733   1.091195   1.751014
    12  C    2.427687   2.201493   3.422841   2.853112   3.290268
    13  H    3.380819   2.513489   4.287642   3.922286   4.266168
    14  C    2.833584   3.384998   3.914891   2.524005   2.962438
    15  H    3.915905   4.286681   4.997972   3.489037   3.809216
    16  C    2.525927   3.928583   3.484455   1.530755   2.164398
    17  H    2.966806   4.278302   3.803169   2.163804   3.042730
    18  H    3.438593   4.925382   4.340766   2.160564   2.382097
    19  C    3.486473   4.629647   3.440454   3.580597   4.605559
    20  H    3.834151   5.272218   3.937553   3.480400   4.456011
    21  C    4.052798   5.114179   3.596473   4.378267   5.266429
    22  H    4.810460   6.077450   4.303279   4.916987   5.710742
    23  C    3.628534   3.480400   3.577712   4.518011   5.518930
    24  H    3.489546   2.784491   3.617490   4.532762   5.470124
    25  H    4.711706   4.456011   4.662287   5.518930   6.551012
    26  C    3.678589   3.627826   3.178446   4.749710   5.609813
    27  H    4.620693   4.194986   4.082169   5.787688   6.613822
    28  H    2.985467   2.844934   2.362727   4.245413   4.969813
                   11         12         13         14         15
    11  H    0.000000
    12  C    3.837611   0.000000
    13  H    4.918888   1.083457   0.000000
    14  C    3.438076   1.331868   2.099972   0.000000
    15  H    4.347372   2.100325   2.429961   1.083842   0.000000
    16  C    2.161523   2.471149   3.464094   1.504330   2.233297
    17  H    2.381055   3.001567   3.944691   2.120791   2.701613
    18  H    2.599322   3.313856   4.209245   2.144310   2.467087
    19  C    3.048182   4.865162   5.763944   4.773047   5.614776
    20  H    2.784491   5.114179   6.077450   4.735824   5.483082
    21  C    3.729132   5.848633   6.729358   5.942851   6.872668
    22  H    4.085321   6.729358   7.662229   6.703215   7.615238
    23  C    4.532762   4.378267   4.916987   4.880954   5.707409
    24  H    4.802172   3.729132   4.085321   4.438261   5.212722
    25  H    5.470124   5.266429   5.710742   5.715763   6.441230
    26  C    4.642735   5.068868   5.661420   5.694017   6.652128
    27  H    5.721285   5.837873   6.292558   6.584010   7.510946
    28  H    4.284901   4.537975   5.127735   5.290531   6.304152
                   16         17         18         19         20
    16  C    0.000000
    17  H    1.096901   0.000000
    18  H    1.091513   1.746591   0.000000
    19  C    3.902436   3.209843   4.678978   0.000000
    20  H    3.627826   2.844934   4.194986   1.083647   0.000000
    21  C    5.068868   4.537975   5.837873   1.463978   2.201493
    22  H    5.661420   5.127735   6.292558   2.200364   2.513489
    23  C    4.749710   4.245413   5.787688   2.468869   3.462828
    24  H    4.642735   4.284901   5.721285   3.308895   4.204186
    25  H    5.609813   4.969813   6.613822   2.992738   3.937003
    26  C    5.421576   5.098325   6.439293   2.859635   3.928583
    27  H    6.439293   6.116203   7.477854   3.843968   4.925382
    28  H    5.098325   4.999874   6.116203   3.302431   4.278302
                   21         22         23         24         25
    21  C    0.000000
    22  H    1.083457   0.000000
    23  C    2.853112   3.922286   0.000000
    24  H    3.837611   4.918888   1.091195   0.000000
    25  H    3.290268   4.266168   1.097957   1.751014   0.000000
    26  C    2.471149   3.464094   1.530755   2.161523   2.164398
    27  H    3.313856   4.209245   2.160564   2.599322   2.382097
    28  H    3.001567   3.944691   2.163804   2.381055   3.042730
                   26         27         28
    26  C    0.000000
    27  H    1.091513   0.000000
    28  H    1.096901   1.746591   0.000000
 Symmetry turned off by external request.
 Stoichiometry    C12H16
 Framework group  CI[X(C12H16)]
 Deg. of freedom    39
 Full point group                 CI      NOp   2
 Rotational constants (GHZ):           1.6759010           0.5726930           0.5274709
 Leave Link  202 at Mon Aug  3 13:57:08 2020, MaxMem=  6442450944 cpu:               0.3 elap:               0.1
 (Enter /scratch/scicomp/CentOS/7.3.1611/Haswell/software/Gaussian/g16/l301.exe)
 Standard basis: def2TZVP (6D, 10F)
 Ernie: Thresh=  0.10000D-02 Tol=  0.10000D-05 Strict=F.
   528 basis functions,   740 primitive gaussians,   528 cartesian basis functions
    44 alpha electrons       44 beta electrons
       nuclear repulsion energy       669.2814376279 Hartrees.
 IExCor= 4639 DFT=T Ex+Corr=wB97XD ExCW=0 ScaHFX=  1.000000
 ScaDFX=  1.000000  1.000000  1.000000  1.000000 ScalE2=  1.000000  1.000000
 IRadAn=      5 IRanWt=     -1 IRanGd=            0 ICorTp=0 IEmpDi=121
 HFx  wShort=  0.000000 wLong=  0.200000 cFull=  0.222036 cShort=  0.000000 cLong=  0.777964
 DFx  wShort=  0.000000 wLong=  0.200000 cFull=  0.000000 cShort=  0.000000 cLong=  1.000000
 NAtoms=   28 NActive=   28 NUniq=   28 SFac= 1.00D+00 NAtFMM=   60 NAOKFM=F Big=F
 Integral buffers will be    131072 words long.
 Raffenetti 2 integral format.
 Two-electron integral symmetry is turned off.
 R6Disp:  Grimme-D2 Dispersion energy=       -0.0209958483 Hartrees.
 Nuclear repulsion after empirical dispersion term =      669.2604417796 Hartrees.
 Using the following non-standard input for PCM:
 norep pcmdoc geomview  nodis nocav g03defaults tsare=0.075
 Warning! Using old PCM defaults because the g03defaults keyword was found.
 These settings can be overridden by following keywords.
 nsfe=28
 NVESolv=36  SolvMW=84.1595   Rsolv=2.815
 eps=2.0165 RhoS=0.7781
 --- end of non-standard input.
 Reading user-defined spheres from input:
 ISph  on   Nord    Re0     Alpha      Xe            Ye            Ze
 --- end of user-defined spheres data.
 ------------------------------------------------------------------------------
 Polarizable Continuum Model (PCM)
 =================================
 Model                : PCM.
 Atomic radii         : UA0 (Simple United Atom Topological Model).
 Polarization charges : Total charges.
 Charge compensation  : None.
 Solution method      : On-the-fly selection.
 Cavity type          : SES (Solvent Excluding Surface) (Alpha=1.000).
 Cavity algorithm     : GePol (RMin=0.200 OFac=0.890).
                        User-defined sphere list used, NSphG=   28.
                        Tesserae with average area of 0.075 Ang**2.
                        Smoothing algorithm: None.
                        Polarization charges: point-like.
                        Self-potential: constant (ISelfS= 1).
                        Self-field    : global E.n sum rule (ISelfD= 3).
 Solvent              : CycloHexane, Eps=   2.016500 Eps(inf)=   2.035188
                        RSolv=   2.815000 Ang.
 ------------------------------------------------------------------------------
 GePol: Number of generator spheres                  =      28
 GePol: Total number of spheres                      =     189
 GePol: Number of exposed spheres                    =     129 ( 68.25%)
 GePol: Number of tesserae                           =    4750
 GePol: Average area of tesserae                     =       0.05 Ang**2
 GePol: Minimum area of tessera                      =   0.10D-02 Ang**2
 GePol: Maximum area of tessera                      =    0.12622 Ang**2
 GePol: Number of small tesserae                     =       0
 GePol: Fraction of small tesserae (<1% of avg)      =       0.00%
 GePol: Total count of vertices                      =   16811
 GePol: Maximum number of vertices in a tessera      =       7
 GePol: Cavity surface area                          =    224.963 Ang**2
 GePol: Cavity volume                                =    257.820 Ang**3
 Leave Link  301 at Mon Aug  3 13:57:08 2020, MaxMem=  6442450944 cpu:               8.6 elap:               0.4
 (Enter /scratch/scicomp/CentOS/7.3.1611/Haswell/software/Gaussian/g16/l302.exe)
 NPDir=0 NMtPBC=     1 NCelOv=     1 NCel=       1 NClECP=     1 NCelD=      1
         NCelK=      1 NCelE2=     1 NClLst=     1 CellRange=     0.0.
 One-electron integrals computed using PRISM.
   1 Symmetry operations used in ECPInt.
 ECPInt:  NShTT=   19306 NPrTT=   56928 LenC2=   18448 LenP2D=   41684.
 LDataN:  DoStor=T MaxTD1= 6 Len=  172
 NBasis=   528 RedAO= T EigKep=  2.03D-05  NBF=   528
 NBsUse=   528 1.00D-06 EigRej= -1.00D+00 NBFU=   528
 Precomputing XC quadrature grid using
 IXCGrd= 4 IRadAn=           5 IRanWt=          -1 IRanGd=           0 AccXCQ= 0.00D+00.
 Generated NRdTot=       0 NPtTot=           0 NUsed=           0 NTot=          32
 NSgBfM=   526   526   526   526   526 MxSgAt=    28 MxSgA2=    28.
 Leave Link  302 at Mon Aug  3 13:57:09 2020, MaxMem=  6442450944 cpu:              12.9 elap:               0.6
 (Enter /scratch/scicomp/CentOS/7.3.1611/Haswell/software/Gaussian/g16/l303.exe)
 DipDrv:  MaxL=1.
 Leave Link  303 at Mon Aug  3 13:57:09 2020, MaxMem=  6442450944 cpu:               1.6 elap:               0.1
 (Enter /scratch/scicomp/CentOS/7.3.1611/Haswell/software/Gaussian/g16/l401.exe)
 ExpMin= 9.52D-02 ExpMax= 1.36D+04 ExpMxC= 4.63D+02 IAcc=3 IRadAn=         5 AccDes= 0.00D+00
 Harris functional with IExCor= 4639 and IRadAn=       5 diagonalized for initial guess.
 HarFok:  IExCor= 4639 AccDes= 0.00D+00 IRadAn=         5 IDoV= 1 UseB2=F ITyADJ=14
 ICtDFT=  3500011 ScaDFX=  1.000000  1.000000  1.000000  1.000000
 FoFCou: FMM=F IPFlag=           0 FMFlag=      100000 FMFlg1=           0
         NFxFlg=           0 DoJE=T BraDBF=F KetDBF=T FulRan=T
         wScrn=  0.000000 ICntrl=       500 IOpCl=  0 I1Cent=   200000004 NGrid=           0
         NMat0=    1 NMatS0=      1 NMatT0=    0 NMatD0=    1 NMtDS0=    0 NMtDT0=    0
 Symmetry not used in FoFCou.
 Harris En= -444.660917891380    
 JPrj=0 DoOrth=F DoCkMO=T.
 Mixing orbitals, IMix= 1 IMixAn=  0 NRI=1 NE=   44 Coef=  7.07106781D-01  7.07106781D-01
 Mixing orbitals, IMix= 1 IMixAn=  0 NRI=1 NE=   44 Coef= -7.07106781D-01  7.07106781D-01
 Initial guess <Sx>= 0.0000 <Sy>= 0.0000 <Sz>= 0.0000 <S**2>= 1.0000 S= 0.6180
 Leave Link  401 at Mon Aug  3 13:57:11 2020, MaxMem=  6442450944 cpu:              49.2 elap:               2.1
 (Enter /scratch/scicomp/CentOS/7.3.1611/Haswell/software/Gaussian/g16/l502.exe)
 Two-electron integral symmetry not used.
 UHF open shell SCF:
 Using DIIS extrapolation, IDIIS=  1040.
 NGot=  6442450944 LenX=  6441877030 LenY=  6441597718
 Requested convergence on RMS density matrix=1.00D-08 within 128 cycles.
 Requested convergence on MAX density matrix=1.00D-06.
 Requested convergence on             energy=1.00D-06.
 No special actions if energy rises.
 Fock matrices will be formed incrementally for  20 cycles.

 Cycle   1  Pass 1  IDiag  1:
 FoFJK:  IHMeth= 1 ICntrl=       0 DoSepK=T KAlg= 0 I1Cent=           0 FoldK=F
 IRaf=         1 NMat=       1 IRICut=       1 DoRegI=T DoRafI=F ISym2E= 0 IDoP0=0 IntGTp=1.
 FoFCou: FMM=F IPFlag=           0 FMFlag=      100000 FMFlg1=           0
         NFxFlg=           0 DoJE=T BraDBF=F KetDBF=F FulRan=T
         wScrn=  0.000000 ICntrl=       500 IOpCl=  0 I1Cent=           0 NGrid=           0
         NMat0=    1 NMatS0=      1 NMatT0=    0 NMatD0=    1 NMtDS0=    0 NMtDT0=    0
 Symmetry not used in FoFCou.
 Inv3:  Mode=1 IEnd=    67687500.
 Iteration    1 A*A^-1 deviation from unit magnitude is 3.55D-15 for   3664.
 Iteration    1 A*A^-1 deviation from orthogonality  is 1.67D-15 for   1085   1071.
 Iteration    1 A^-1*A deviation from unit magnitude is 3.11D-15 for   3664.
 Iteration    1 A^-1*A deviation from orthogonality  is 1.78D-15 for   3675   1529.
 E= -466.573113258126    
 DIIS: error= 5.26D-02 at cycle   1 NSaved=   1.
 NSaved= 1 IEnMin= 1 EnMin= -466.573113258126     IErMin= 1 ErrMin= 5.26D-02
 ErrMax= 5.26D-02  0.00D+00 EMaxC= 1.00D-01 BMatC= 4.12D+00 BMatP= 4.12D+00
 IDIUse=3 WtCom= 4.74D-01 WtEn= 5.26D-01
 Coeff-Com:  0.100D+01
 Coeff-En:   0.100D+01
 Coeff:      0.100D+01
 Gap=     0.179 Goal=   None    Shift=    0.000
 Gap=     0.179 Goal=   None    Shift=    0.000
 GapD=    0.179 DampG=1.000 DampE=0.500 DampFc=0.5000 IDamp=-1.
 Damping current iteration by 5.00D-01
 RMSDP=1.65D-03 MaxDP=9.32D-02              OVMax= 3.65D-01

 Cycle   2  Pass 1  IDiag  1:
 RMSU=  7.88D-04    CP:  9.61D-01
 E= -466.688741904638     Delta-E=       -0.115628646513 Rises=F Damp=T
 DIIS: error= 2.51D-02 at cycle   2 NSaved=   2.
 NSaved= 2 IEnMin= 2 EnMin= -466.688741904638     IErMin= 2 ErrMin= 2.51D-02
 ErrMax= 2.51D-02  0.00D+00 EMaxC= 1.00D-01 BMatC= 9.37D-01 BMatP= 4.12D+00
 IDIUse=3 WtCom= 7.49D-01 WtEn= 2.51D-01
 Coeff-Com: -0.868D+00 0.187D+01
 Coeff-En:   0.000D+00 0.100D+01
 Coeff:     -0.650D+00 0.165D+01
 Gap=     0.284 Goal=   None    Shift=    0.000
 Gap=     0.284 Goal=   None    Shift=    0.000
 RMSDP=1.18D-03 MaxDP=4.88D-02 DE=-1.16D-01 OVMax= 1.39D-01

 Cycle   3  Pass 1  IDiag  1:
 RMSU=  6.10D-04    CP:  9.03D-01  2.20D+00
 E= -466.840394792952     Delta-E=       -0.151652888313 Rises=F Damp=F
 DIIS: error= 7.82D-03 at cycle   3 NSaved=   3.
 NSaved= 3 IEnMin= 3 EnMin= -466.840394792952     IErMin= 3 ErrMin= 7.82D-03
 ErrMax= 7.82D-03  0.00D+00 EMaxC= 1.00D-01 BMatC= 2.40D-02 BMatP= 9.37D-01
 IDIUse=3 WtCom= 9.22D-01 WtEn= 7.82D-02
 Coeff-Com: -0.312D+00 0.669D+00 0.643D+00
 Coeff-En:   0.000D+00 0.000D+00 0.100D+01
 Coeff:     -0.288D+00 0.617D+00 0.671D+00
 Gap=     0.307 Goal=   None    Shift=    0.000
 Gap=     0.307 Goal=   None    Shift=    0.000
 RMSDP=2.07D-04 MaxDP=1.03D-02 DE=-1.52D-01 OVMax= 6.37D-02

 Cycle   4  Pass 1  IDiag  1:
 RMSU=  1.87D-04    CP:  8.96D-01  2.30D+00  1.00D+00
 E= -466.851072015303     Delta-E=       -0.010677222352 Rises=F Damp=F
 DIIS: error= 5.07D-03 at cycle   4 NSaved=   4.
 NSaved= 4 IEnMin= 4 EnMin= -466.851072015303     IErMin= 4 ErrMin= 5.07D-03
 ErrMax= 5.07D-03  0.00D+00 EMaxC= 1.00D-01 BMatC= 2.02D-03 BMatP= 2.40D-02
 IDIUse=3 WtCom= 9.49D-01 WtEn= 5.07D-02
 Coeff-Com:  0.150D+00-0.322D+00-0.807D-01 0.125D+01
 Coeff-En:   0.000D+00 0.000D+00 0.000D+00 0.100D+01
 Coeff:      0.143D+00-0.305D+00-0.766D-01 0.124D+01
 Gap=     0.318 Goal=   None    Shift=    0.000
 Gap=     0.318 Goal=   None    Shift=    0.000
 RMSDP=2.09D-04 MaxDP=1.19D-02 DE=-1.07D-02 OVMax= 7.59D-02

 Cycle   5  Pass 1  IDiag  1:
 RMSU=  8.22D-05    CP:  8.89D-01  2.35D+00  1.23D+00  1.64D+00
 E= -466.855614082222     Delta-E=       -0.004542066918 Rises=F Damp=F
 DIIS: error= 2.18D-03 at cycle   5 NSaved=   5.
 NSaved= 5 IEnMin= 5 EnMin= -466.855614082222     IErMin= 5 ErrMin= 2.18D-03
 ErrMax= 2.18D-03  0.00D+00 EMaxC= 1.00D-01 BMatC= 7.64D-04 BMatP= 2.02D-03
 IDIUse=3 WtCom= 9.78D-01 WtEn= 2.18D-02
 Coeff-Com:  0.515D-01-0.111D+00-0.582D-01 0.282D+00 0.836D+00
 Coeff-En:   0.000D+00 0.000D+00 0.000D+00 0.000D+00 0.100D+01
 Coeff:      0.504D-01-0.108D+00-0.569D-01 0.276D+00 0.839D+00
 Gap=     0.320 Goal=   None    Shift=    0.000
 Gap=     0.320 Goal=   None    Shift=    0.000
 RMSDP=7.00D-05 MaxDP=2.78D-03 DE=-4.54D-03 OVMax= 2.66D-02

 Cycle   6  Pass 1  IDiag  1:
 RMSU=  3.18D-05    CP:  8.87D-01  2.36D+00  1.26D+00  1.89D+00  1.41D+00
 E= -466.856920662904     Delta-E=       -0.001306580682 Rises=F Damp=F
 DIIS: error= 1.53D-03 at cycle   6 NSaved=   6.
 NSaved= 6 IEnMin= 6 EnMin= -466.856920662904     IErMin= 6 ErrMin= 1.53D-03
 ErrMax= 1.53D-03  0.00D+00 EMaxC= 1.00D-01 BMatC= 5.06D-04 BMatP= 7.64D-04
 IDIUse=3 WtCom= 9.85D-01 WtEn= 1.53D-02
 Coeff-Com: -0.843D-01 0.181D+00 0.567D-01-0.637D+00 0.114D+00 0.137D+01
 Coeff-En:   0.000D+00 0.000D+00 0.000D+00 0.000D+00 0.000D+00 0.100D+01
 Coeff:     -0.830D-01 0.178D+00 0.559D-01-0.627D+00 0.112D+00 0.136D+01
 Gap=     0.316 Goal=   None    Shift=    0.000
 Gap=     0.316 Goal=   None    Shift=    0.000
 RMSDP=9.57D-05 MaxDP=3.93D-03 DE=-1.31D-03 OVMax= 3.65D-02

 Cycle   7  Pass 1  IDiag  1:
 RMSU=  2.98D-05    CP:  8.86D-01  2.36D+00  1.29D+00  2.16D+00  2.11D+00
                    CP:  2.33D+00
 E= -466.858492457474     Delta-E=       -0.001571794571 Rises=F Damp=F
 DIIS: error= 1.02D-03 at cycle   7 NSaved=   7.
 NSaved= 7 IEnMin= 7 EnMin= -466.858492457474     IErMin= 7 ErrMin= 1.02D-03
 ErrMax= 1.02D-03  0.00D+00 EMaxC= 1.00D-01 BMatC= 2.51D-04 BMatP= 5.06D-04
 IDIUse=3 WtCom= 9.90D-01 WtEn= 1.02D-02
 Coeff-Com: -0.256D-01 0.555D-01 0.417D-01-0.158D-01-0.789D+00-0.311D+00
 Coeff-Com:  0.204D+01
 Coeff-En:   0.000D+00 0.000D+00 0.000D+00 0.000D+00 0.000D+00 0.000D+00
 Coeff-En:   0.100D+01
 Coeff:     -0.254D-01 0.549D-01 0.412D-01-0.156D-01-0.781D+00-0.308D+00
 Coeff:      0.203D+01
 Gap=     0.316 Goal=   None    Shift=    0.000
 Gap=     0.316 Goal=   None    Shift=    0.000
 RMSDP=1.30D-04 MaxDP=6.13D-03 DE=-1.57D-03 OVMax= 4.89D-02

 Cycle   8  Pass 1  IDiag  1:
 RMSU=  5.66D-05    CP:  8.84D-01  2.36D+00  1.33D+00  2.47D+00  2.98D+00
                    CP:  3.00D+00  2.54D+00
 E= -466.859798072383     Delta-E=       -0.001305614908 Rises=F Damp=F
 DIIS: error= 3.59D-04 at cycle   8 NSaved=   8.
 NSaved= 8 IEnMin= 8 EnMin= -466.859798072383     IErMin= 8 ErrMin= 3.59D-04
 ErrMax= 3.59D-04  0.00D+00 EMaxC= 1.00D-01 BMatC= 5.52D-05 BMatP= 2.51D-04
 IDIUse=3 WtCom= 9.96D-01 WtEn= 3.59D-03
 Coeff-Com:  0.237D-01-0.509D-01-0.630D-02 0.253D+00-0.260D+00-0.619D+00
 Coeff-Com:  0.555D+00 0.110D+01
 Coeff-En:   0.000D+00 0.000D+00 0.000D+00 0.000D+00 0.000D+00 0.000D+00
 Coeff-En:   0.000D+00 0.100D+01
 Coeff:      0.236D-01-0.507D-01-0.628D-02 0.252D+00-0.259D+00-0.616D+00
 Coeff:      0.553D+00 0.110D+01
 Gap=     0.318 Goal=   None    Shift=    0.000
 Gap=     0.318 Goal=   None    Shift=    0.000
 RMSDP=5.70D-05 MaxDP=2.76D-03 DE=-1.31D-03 OVMax= 2.10D-02

 Cycle   9  Pass 1  IDiag  1:
 RMSU=  3.01D-05    CP:  8.83D-01  2.36D+00  1.34D+00  2.56D+00  3.00D+00
                    CP:  3.00D+00  3.00D+00  1.64D+00
 E= -466.860002723277     Delta-E=       -0.000204650895 Rises=F Damp=F
 DIIS: error= 1.09D-04 at cycle   9 NSaved=   9.
 NSaved= 9 IEnMin= 9 EnMin= -466.860002723277     IErMin= 9 ErrMin= 1.09D-04
 ErrMax= 1.09D-04  0.00D+00 EMaxC= 1.00D-01 BMatC= 7.99D-06 BMatP= 5.52D-05
 IDIUse=3 WtCom= 9.99D-01 WtEn= 1.09D-03
 Coeff-Com:  0.118D-01-0.254D-01-0.790D-02 0.844D-01 0.325D-01-0.150D+00
 Coeff-Com: -0.124D+00 0.295D+00 0.883D+00
 Coeff-En:   0.000D+00 0.000D+00 0.000D+00 0.000D+00 0.000D+00 0.000D+00
 Coeff-En:   0.000D+00 0.000D+00 0.100D+01
 Coeff:      0.118D-01-0.254D-01-0.789D-02 0.843D-01 0.325D-01-0.150D+00
 Coeff:     -0.124D+00 0.294D+00 0.884D+00
 Gap=     0.318 Goal=   None    Shift=    0.000
 Gap=     0.318 Goal=   None    Shift=    0.000
 RMSDP=1.35D-05 MaxDP=6.49D-04 DE=-2.05D-04 OVMax= 4.91D-03

 Cycle  10  Pass 1  IDiag  1:
 RMSU=  5.37D-06    CP:  8.82D-01  2.36D+00  1.35D+00  2.58D+00  3.00D+00
                    CP:  3.00D+00  3.00D+00  1.78D+00  1.28D+00
 E= -466.860016436799     Delta-E=       -0.000013713522 Rises=F Damp=F
 DIIS: error= 4.60D-05 at cycle  10 NSaved=  10.
 NSaved=10 IEnMin=10 EnMin= -466.860016436799     IErMin=10 ErrMin= 4.60D-05
 ErrMax= 4.60D-05  0.00D+00 EMaxC= 1.00D-01 BMatC= 1.18D-06 BMatP= 7.99D-06
 IDIUse=1 WtCom= 1.00D+00 WtEn= 0.00D+00
 Coeff-Com: -0.191D-02 0.412D-02-0.222D-03-0.299D-01 0.432D-01 0.804D-01
 Coeff-Com: -0.965D-01-0.183D+00 0.139D+00 0.105D+01
 Coeff:     -0.191D-02 0.412D-02-0.222D-03-0.299D-01 0.432D-01 0.804D-01
 Coeff:     -0.965D-01-0.183D+00 0.139D+00 0.105D+01
 Gap=     0.317 Goal=   None    Shift=    0.000
 Gap=     0.317 Goal=   None    Shift=    0.000
 RMSDP=5.55D-06 MaxDP=2.59D-04 DE=-1.37D-05 OVMax= 2.06D-03

 Cycle  11  Pass 1  IDiag  1:
 RMSU=  1.86D-06    CP:  8.82D-01  2.36D+00  1.35D+00  2.59D+00  3.00D+00
                    CP:  3.00D+00  3.00D+00  1.83D+00  1.39D+00  1.38D+00
 E= -466.860018123490     Delta-E=       -0.000001686690 Rises=F Damp=F
 DIIS: error= 1.66D-05 at cycle  11 NSaved=  11.
 NSaved=11 IEnMin=11 EnMin= -466.860018123490     IErMin=11 ErrMin= 1.66D-05
 ErrMax= 1.66D-05  0.00D+00 EMaxC= 1.00D-01 BMatC= 2.36D-07 BMatP= 1.18D-06
 IDIUse=1 WtCom= 1.00D+00 WtEn= 0.00D+00
 Coeff-Com: -0.123D-02 0.266D-02 0.252D-03-0.146D-01 0.131D-01 0.350D-01
 Coeff-Com: -0.230D-01-0.829D-01-0.116D-01 0.370D+00 0.712D+00
 Coeff:     -0.123D-02 0.266D-02 0.252D-03-0.146D-01 0.131D-01 0.350D-01
 Coeff:     -0.230D-01-0.829D-01-0.116D-01 0.370D+00 0.712D+00
 Gap=     0.317 Goal=   None    Shift=    0.000
 Gap=     0.317 Goal=   None    Shift=    0.000
 RMSDP=7.80D-07 MaxDP=4.19D-05 DE=-1.69D-06 OVMax= 1.53D-04

 Cycle  12  Pass 1  IDiag  1:
 RMSU=  6.45D-07    CP:  8.82D-01  2.36D+00  1.35D+00  2.59D+00  3.00D+00
                    CP:  3.00D+00  3.00D+00  1.83D+00  1.40D+00  1.39D+00
                    CP:  1.17D+00
 E= -466.860018251919     Delta-E=       -0.000000128429 Rises=F Damp=F
 DIIS: error= 1.13D-05 at cycle  12 NSaved=  12.
 NSaved=12 IEnMin=12 EnMin= -466.860018251919     IErMin=12 ErrMin= 1.13D-05
 ErrMax= 1.13D-05  0.00D+00 EMaxC= 1.00D-01 BMatC= 6.17D-08 BMatP= 2.36D-07
 IDIUse=1 WtCom= 1.00D+00 WtEn= 0.00D+00
 Coeff-Com:  0.385D-03-0.837D-03-0.468D-04 0.576D-02-0.708D-02-0.153D-01
 Coeff-Com:  0.190D-01 0.334D-01-0.350D-01-0.217D+00 0.186D+00 0.103D+01
 Coeff:      0.385D-03-0.837D-03-0.468D-04 0.576D-02-0.708D-02-0.153D-01
 Coeff:      0.190D-01 0.334D-01-0.350D-01-0.217D+00 0.186D+00 0.103D+01
 Gap=     0.317 Goal=   None    Shift=    0.000
 Gap=     0.317 Goal=   None    Shift=    0.000
 RMSDP=6.95D-07 MaxDP=3.45D-05 DE=-1.28D-07 OVMax= 1.32D-04

 Cycle  13  Pass 1  IDiag  1:
 RMSU=  3.84D-07    CP:  8.82D-01  2.36D+00  1.35D+00  2.59D+00  3.00D+00
                    CP:  3.00D+00  3.00D+00  1.83D+00  1.39D+00  1.38D+00
                    CP:  1.35D+00  1.64D+00
 E= -466.860018322097     Delta-E=       -0.000000070178 Rises=F Damp=F
 DIIS: error= 6.34D-06 at cycle  13 NSaved=  13.
 NSaved=13 IEnMin=13 EnMin= -466.860018322097     IErMin=13 ErrMin= 6.34D-06
 ErrMax= 6.34D-06  0.00D+00 EMaxC= 1.00D-01 BMatC= 1.31D-08 BMatP= 6.17D-08
 IDIUse=1 WtCom= 1.00D+00 WtEn= 0.00D+00
 Coeff-Com: -0.438D-04 0.969D-04 0.687D-04-0.240D-03 0.135D-03 0.109D-03
 Coeff-Com: -0.165D-02 0.273D-02 0.592D-02-0.966D-02-0.172D+00-0.210D+00
 Coeff-Com:  0.138D+01
 Coeff:     -0.438D-04 0.969D-04 0.687D-04-0.240D-03 0.135D-03 0.109D-03
 Coeff:     -0.165D-02 0.273D-02 0.592D-02-0.966D-02-0.172D+00-0.210D+00
 Coeff:      0.138D+01
 Gap=     0.317 Goal=   None    Shift=    0.000
 Gap=     0.317 Goal=   None    Shift=    0.000
 RMSDP=3.69D-07 MaxDP=2.08D-05 DE=-7.02D-08 OVMax= 9.11D-05

 Cycle  14  Pass 1  IDiag  1:
 RMSU=  2.30D-07    CP:  8.82D-01  2.36D+00  1.35D+00  2.59D+00  3.00D+00
                    CP:  3.00D+00  3.00D+00  1.83D+00  1.39D+00  1.38D+00
                    CP:  1.42D+00  1.92D+00  1.47D+00
 E= -466.860018350050     Delta-E=       -0.000000027953 Rises=F Damp=F
 DIIS: error= 3.42D-06 at cycle  14 NSaved=  14.
 NSaved=14 IEnMin=14 EnMin= -466.860018350050     IErMin=14 ErrMin= 3.42D-06
 ErrMax= 3.42D-06  0.00D+00 EMaxC= 1.00D-01 BMatC= 3.82D-09 BMatP= 1.31D-08
 IDIUse=1 WtCom= 1.00D+00 WtEn= 0.00D+00
 Coeff-Com: -0.130D-03 0.282D-03 0.631D-04-0.154D-02 0.145D-02 0.378D-02
 Coeff-Com: -0.454D-02-0.777D-02 0.965D-02 0.557D-01-0.717D-01-0.304D+00
 Coeff-Com:  0.834D-01 0.124D+01
 Coeff:     -0.130D-03 0.282D-03 0.631D-04-0.154D-02 0.145D-02 0.378D-02
 Coeff:     -0.454D-02-0.777D-02 0.965D-02 0.557D-01-0.717D-01-0.304D+00
 Coeff:      0.834D-01 0.124D+01
 Gap=     0.317 Goal=   None    Shift=    0.000
 Gap=     0.317 Goal=   None    Shift=    0.000
 RMSDP=2.41D-07 MaxDP=1.18D-05 DE=-2.80D-08 OVMax= 6.18D-05

 Cycle  15  Pass 1  IDiag  1:
 RMSU=  8.93D-08    CP:  8.82D-01  2.36D+00  1.35D+00  2.59D+00  3.00D+00
                    CP:  3.00D+00  3.00D+00  1.83D+00  1.39D+00  1.39D+00
                    CP:  1.43D+00  2.03D+00  1.76D+00  1.76D+00
 E= -466.860018358494     Delta-E=       -0.000000008444 Rises=F Damp=F
 DIIS: error= 1.28D-06 at cycle  15 NSaved=  15.
 NSaved=15 IEnMin=15 EnMin= -466.860018358494     IErMin=15 ErrMin= 1.28D-06
 ErrMax= 1.28D-06  0.00D+00 EMaxC= 1.00D-01 BMatC= 6.97D-10 BMatP= 3.82D-09
 IDIUse=1 WtCom= 1.00D+00 WtEn= 0.00D+00
 Coeff-Com:  0.175D-04-0.380D-04-0.267D-04 0.488D-04 0.111D-03 0.144D-03
 Coeff-Com: -0.293D-03-0.107D-02 0.111D-02 0.103D-01 0.300D-01-0.362D-02
 Coeff-Com: -0.359D+00 0.237D+00 0.109D+01
 Coeff:      0.175D-04-0.380D-04-0.267D-04 0.488D-04 0.111D-03 0.144D-03
 Coeff:     -0.293D-03-0.107D-02 0.111D-02 0.103D-01 0.300D-01-0.362D-02
 Coeff:     -0.359D+00 0.237D+00 0.109D+01
 Gap=     0.317 Goal=   None    Shift=    0.000
 Gap=     0.317 Goal=   None    Shift=    0.000
 RMSDP=1.24D-07 MaxDP=5.45D-06 DE=-8.44D-09 OVMax= 2.92D-05

 Cycle  16  Pass 1  IDiag  1:
 RMSU=  4.13D-08    CP:  8.82D-01  2.36D+00  1.35D+00  2.59D+00  3.00D+00
                    CP:  3.00D+00  3.00D+00  1.83D+00  1.39D+00  1.39D+00
                    CP:  1.43D+00  2.06D+00  1.88D+00  2.14D+00  1.54D+00
 E= -466.860018359715     Delta-E=       -0.000000001221 Rises=F Damp=F
 DIIS: error= 2.11D-07 at cycle  16 NSaved=  16.
 NSaved=16 IEnMin=16 EnMin= -466.860018359715     IErMin=16 ErrMin= 2.11D-07
 ErrMax= 2.11D-07  0.00D+00 EMaxC= 1.00D-01 BMatC= 5.54D-11 BMatP= 6.97D-10
 IDIUse=1 WtCom= 1.00D+00 WtEn= 0.00D+00
 Coeff-Com:  0.753D-05-0.163D-04-0.857D-05 0.718D-04-0.432D-04-0.111D-03
 Coeff-Com:  0.149D-03 0.162D-03-0.528D-03-0.156D-02 0.126D-01 0.216D-01
 Coeff-Com: -0.822D-01-0.532D-01 0.235D+00 0.868D+00
 Coeff:      0.753D-05-0.163D-04-0.857D-05 0.718D-04-0.432D-04-0.111D-03
 Coeff:      0.149D-03 0.162D-03-0.528D-03-0.156D-02 0.126D-01 0.216D-01
 Coeff:     -0.822D-01-0.532D-01 0.235D+00 0.868D+00
 Gap=     0.317 Goal=   None    Shift=    0.000
 Gap=     0.317 Goal=   None    Shift=    0.000
 RMSDP=2.55D-08 MaxDP=1.17D-06 DE=-1.22D-09 OVMax= 4.10D-06

 Cycle  17  Pass 1  IDiag  1:
 RMSU=  1.12D-08    CP:  8.82D-01  2.36D+00  1.35D+00  2.59D+00  3.00D+00
                    CP:  3.00D+00  3.00D+00  1.83D+00  1.39D+00  1.39D+00
                    CP:  1.43D+00  2.07D+00  1.88D+00  2.19D+00  1.66D+00
                    CP:  1.30D+00
 E= -466.860018359753     Delta-E=       -0.000000000038 Rises=F Damp=F
 DIIS: error= 8.76D-08 at cycle  17 NSaved=  17.
 NSaved=17 IEnMin=17 EnMin= -466.860018359753     IErMin=17 ErrMin= 8.76D-08
 ErrMax= 8.76D-08  0.00D+00 EMaxC= 1.00D-01 BMatC= 7.33D-12 BMatP= 5.54D-11
 IDIUse=1 WtCom= 1.00D+00 WtEn= 0.00D+00
 Coeff-Com: -0.568D-06 0.127D-05 0.978D-06 0.118D-05-0.147D-04-0.373D-05
 Coeff-Com:  0.116D-04 0.141D-03-0.212D-03-0.144D-02-0.223D-02 0.280D-02
 Coeff-Com:  0.392D-01-0.410D-01-0.121D+00 0.139D+00 0.985D+00
 Coeff:     -0.568D-06 0.127D-05 0.978D-06 0.118D-05-0.147D-04-0.373D-05
 Coeff:      0.116D-04 0.141D-03-0.212D-03-0.144D-02-0.223D-02 0.280D-02
 Coeff:      0.392D-01-0.410D-01-0.121D+00 0.139D+00 0.985D+00
 Gap=     0.317 Goal=   None    Shift=    0.000
 Gap=     0.317 Goal=   None    Shift=    0.000
 RMSDP=9.66D-09 MaxDP=3.41D-07 DE=-3.79D-11 OVMax= 1.36D-06

 Error on total polarization charges =  0.01179
 SCF Done:  E(UwB97XD) =  -466.860018360     A.U. after   17 cycles
            NFock= 17  Conv=0.97D-08     -V/T= 2.0059
 <Sx>= 0.0000 <Sy>= 0.0000 <Sz>= 0.0000 <S**2>= 0.0000 S= 0.0000
 <L.S>=  0.00000000000    
 KE= 4.641419228647D+02 PE=-2.420258801090D+03 EE= 8.199964180861D+02
 --------------------------------------------------------------------
 Variational PCM results
 =======================
 <psi(f)|   H    |psi(f)>                     (a.u.) =    -466.858520
 <psi(f)|H+V(f)/2|psi(f)>                     (a.u.) =    -466.860018
 (Polarized solute)-Solvent               (kcal/mol) =      -0.94
 --------------------------------------------------------------------
 Partition over spheres:
 Sphere  on Atom  Surface  Charge   GEl     GCav    GDR
    1      C1       6.96   0.010   -0.05    0.00    0.00
    2      C2       4.78   0.007   -0.04    0.00    0.00
    3      H3       7.52  -0.010   -0.04    0.00    0.00
    4      H4       3.19  -0.004   -0.01    0.00    0.00
    5      C5       4.05   0.007   -0.04    0.00    0.00
    6      C6       4.25   0.005   -0.03    0.00    0.00
    7      H7       4.87  -0.007   -0.03    0.00    0.00
    8      H8       4.19  -0.006   -0.01    0.00    0.00
    9      C9       3.60   0.002    0.00    0.00    0.00
   10      H10      7.16  -0.007   -0.01    0.00    0.00
   11      H11      3.29  -0.003   -0.01    0.00    0.00
   12      C12      6.29   0.010   -0.06    0.00    0.00
   13      H13      7.52  -0.010   -0.03    0.00    0.00
   14      C14      6.96   0.010   -0.05    0.00    0.00
   15      H15      7.52  -0.010   -0.04    0.00    0.00
   16      C16      3.77   0.002    0.00    0.00    0.00
   17      H17      3.17  -0.002   -0.01    0.00    0.00
   18      H18      7.43  -0.008   -0.03    0.00    0.00
   19      C19      5.09   0.009   -0.06    0.00    0.00
   20      H20      5.03  -0.007   -0.03    0.00    0.00
   21      C21      6.52   0.010   -0.06    0.00    0.00
   22      H22      7.51  -0.010   -0.03    0.00    0.00
   23      C23      3.60   0.002    0.00    0.00    0.00
   24      H24      2.99  -0.003   -0.01    0.00    0.00
   25      H25      7.16  -0.007   -0.01    0.00    0.00
   26      C26      3.46   0.002    0.00    0.00    0.00
   27      H27      7.43  -0.008   -0.03    0.00    0.00
   28      H28      2.39  -0.002   -0.01    0.00    0.00
 Added spheres:    77.25   0.017   -0.23    0.00    0.00
 --------------------------------------------------------------------
 After PCM corrections, the energy is  -466.860018360     a.u.
 --------------------------------------------------------------------
 Annihilation of the first spin contaminant:
 S**2 before annihilation     0.0000,   after     0.0000
 Leave Link  502 at Mon Aug  3 14:02:13 2020, MaxMem=  6442450944 cpu:            7156.0 elap:             301.2
 (Enter /scratch/scicomp/CentOS/7.3.1611/Haswell/software/Gaussian/g16/l601.exe)
 Copying SCF densities to generalized density rwf, IOpCl= 1 IROHF=0.

 **********************************************************************

            Population analysis using the SCF Density.

 **********************************************************************

 Alpha  occ. eigenvalues --  -10.28454 -10.28453 -10.28335 -10.28333 -10.28315
 Alpha  occ. eigenvalues --  -10.28313 -10.28237 -10.28236 -10.28023 -10.28022
 Alpha  occ. eigenvalues --  -10.27736 -10.27734  -0.94160  -0.93777  -0.84161
 Alpha  occ. eigenvalues --   -0.84126  -0.83955  -0.83764  -0.71312  -0.71281
 Alpha  occ. eigenvalues --   -0.67975  -0.67963  -0.59787  -0.59650  -0.57478
 Alpha  occ. eigenvalues --   -0.56946  -0.53452  -0.52742  -0.50962  -0.50903
 Alpha  occ. eigenvalues --   -0.50011  -0.49585  -0.47339  -0.47049  -0.45181
 Alpha  occ. eigenvalues --   -0.45043  -0.41261  -0.41102  -0.39684  -0.39295
 Alpha  occ. eigenvalues --   -0.39291  -0.39130  -0.29813  -0.27916
 Alpha virt. eigenvalues --    0.03817   0.04558   0.10521   0.12216   0.13291
 Alpha virt. eigenvalues --    0.14298   0.14627   0.15502   0.15606   0.15897
 Alpha virt. eigenvalues --    0.16864   0.16894   0.17119   0.18212   0.19895
 Alpha virt. eigenvalues --    0.20776   0.21418   0.22641   0.23052   0.23648
 Alpha virt. eigenvalues --    0.24845   0.25631   0.25839   0.26903   0.27776
 Alpha virt. eigenvalues --    0.28136   0.28883   0.29129   0.29729   0.30406
 Alpha virt. eigenvalues --    0.31130   0.31754   0.31814   0.32096   0.32777
 Alpha virt. eigenvalues --    0.33209   0.34119   0.35040   0.35312   0.37263
 Alpha virt. eigenvalues --    0.37352   0.38222   0.39561   0.40947   0.41227
 Alpha virt. eigenvalues --    0.41275   0.43064   0.43789   0.45076   0.45640
 Alpha virt. eigenvalues --    0.45906   0.46225   0.47445   0.47837   0.48095
 Alpha virt. eigenvalues --    0.48373   0.48844   0.49132   0.49550   0.49707
 Alpha virt. eigenvalues --    0.50431   0.50433   0.51210   0.51713   0.52379
 Alpha virt. eigenvalues --    0.52594   0.53214   0.54235   0.54247   0.54928
 Alpha virt. eigenvalues --    0.56876   0.57278   0.57371   0.59116   0.59140
 Alpha virt. eigenvalues --    0.59553   0.60927   0.62440   0.63020   0.64035
 Alpha virt. eigenvalues --    0.64600   0.66399   0.67711   0.68279   0.69124
 Alpha virt. eigenvalues --    0.70731   0.72220   0.72742   0.73234   0.74956
 Alpha virt. eigenvalues --    0.76460   0.77978   0.78185   0.80405   0.81454
 Alpha virt. eigenvalues --    0.81717   0.81921   0.82817   0.86649   0.86848
 Alpha virt. eigenvalues --    0.87295   0.88349   0.90714   0.91268   0.92182
 Alpha virt. eigenvalues --    0.92355   0.95052   0.95954   0.98366   0.98845
 Alpha virt. eigenvalues --    1.00590   1.03192   1.03686   1.03895   1.04219
 Alpha virt. eigenvalues --    1.06508   1.06871   1.08106   1.09530   1.11270
 Alpha virt. eigenvalues --    1.13080   1.13201   1.14180   1.14535   1.15381
 Alpha virt. eigenvalues --    1.16003   1.16113   1.16579   1.18760   1.20337
 Alpha virt. eigenvalues --    1.21204   1.22527   1.23312   1.23501   1.24524
 Alpha virt. eigenvalues --    1.25014   1.25678   1.26714   1.26773   1.28368
 Alpha virt. eigenvalues --    1.28599   1.30208   1.31948   1.32326   1.32603
 Alpha virt. eigenvalues --    1.34210   1.34617   1.35440   1.36826   1.38268
 Alpha virt. eigenvalues --    1.38657   1.39426   1.40459   1.40761   1.41722
 Alpha virt. eigenvalues --    1.42032   1.42439   1.43661   1.44987   1.45154
 Alpha virt. eigenvalues --    1.45729   1.46511   1.46555   1.46642   1.48526
 Alpha virt. eigenvalues --    1.49977   1.50144   1.50815   1.53084   1.55453
 Alpha virt. eigenvalues --    1.55848   1.57430   1.57711   1.58246   1.60703
 Alpha virt. eigenvalues --    1.60823   1.62372   1.63126   1.64875   1.67319
 Alpha virt. eigenvalues --    1.68422   1.69557   1.69998   1.72106   1.75508
 Alpha virt. eigenvalues --    1.75511   1.79735   1.80381   1.82376   1.83338
 Alpha virt. eigenvalues --    1.86559   1.87784   1.89267   1.89584   1.91267
 Alpha virt. eigenvalues --    1.92306   1.95740   1.99906   2.01110   2.01313
 Alpha virt. eigenvalues --    2.03882   2.04956   2.06824   2.07477   2.08657
 Alpha virt. eigenvalues --    2.08847   2.11541   2.12212   2.13167   2.15335
 Alpha virt. eigenvalues --    2.18632   2.19497   2.19897   2.20399   2.22187
 Alpha virt. eigenvalues --    2.22970   2.23070   2.23822   2.25497   2.26049
 Alpha virt. eigenvalues --    2.28553   2.32255   2.37053   2.37805   2.40168
 Alpha virt. eigenvalues --    2.42528   2.45920   2.46660   2.48427   2.49479
 Alpha virt. eigenvalues --    2.49925   2.50178   2.52739   2.54071   2.54381
 Alpha virt. eigenvalues --    2.55034   2.57104   2.57373   2.60299   2.60701
 Alpha virt. eigenvalues --    2.61923   2.64062   2.64282   2.65084   2.66409
 Alpha virt. eigenvalues --    2.67647   2.68256   2.70144   2.72143   2.72263
 Alpha virt. eigenvalues --    2.73055   2.73152   2.74759   2.75870   2.76652
 Alpha virt. eigenvalues --    2.77479   2.77588   2.78766   2.80347   2.81004
 Alpha virt. eigenvalues --    2.81435   2.81775   2.82307   2.83654   2.84217
 Alpha virt. eigenvalues --    2.84714   2.85889   2.86951   2.88694   2.88711
 Alpha virt. eigenvalues --    2.89704   2.89849   2.92218   2.92631   2.93074
 Alpha virt. eigenvalues --    2.94352   2.94580   2.94892   2.95866   2.98652
 Alpha virt. eigenvalues --    3.01700   3.01744   3.02788   3.03974   3.06101
 Alpha virt. eigenvalues --    3.06366   3.08152   3.08815   3.09391   3.10830
 Alpha virt. eigenvalues --    3.12063   3.12399   3.12562   3.13877   3.14702
 Alpha virt. eigenvalues --    3.14844   3.16894   3.17092   3.18387   3.18666
 Alpha virt. eigenvalues --    3.19337   3.19505   3.19994   3.20847   3.20963
 Alpha virt. eigenvalues --    3.22246   3.22464   3.23260   3.23336   3.24045
 Alpha virt. eigenvalues --    3.25293   3.25937   3.26818   3.27586   3.28044
 Alpha virt. eigenvalues --    3.28694   3.29196   3.30035   3.31093   3.31228
 Alpha virt. eigenvalues --    3.32337   3.32836   3.33080   3.33528   3.34305
 Alpha virt. eigenvalues --    3.34738   3.35311   3.35937   3.37570   3.38290
 Alpha virt. eigenvalues --    3.38838   3.39278   3.41812   3.43545   3.43683
 Alpha virt. eigenvalues --    3.44737   3.45510   3.46297   3.46546   3.46888
 Alpha virt. eigenvalues --    3.48164   3.48780   3.48911   3.49398   3.51042
 Alpha virt. eigenvalues --    3.51238   3.51882   3.53319   3.54187   3.54382
 Alpha virt. eigenvalues --    3.54622   3.55346   3.59127   3.59325   3.61650
 Alpha virt. eigenvalues --    3.63268   3.64472   3.64678   3.64818   3.64960
 Alpha virt. eigenvalues --    3.67767   3.68401   3.70042   3.71489   3.71713
 Alpha virt. eigenvalues --    3.73822   3.76159   3.76291   3.78155   3.78690
 Alpha virt. eigenvalues --    3.84182   3.84603   3.85135   3.86039   3.86237
 Alpha virt. eigenvalues --    3.87703   3.89536   3.90193   3.92493   3.93486
 Alpha virt. eigenvalues --    3.94231   3.95272   3.99267   3.99319   4.01742
 Alpha virt. eigenvalues --    4.04023   4.08068   4.08948   4.08969   4.10577
 Alpha virt. eigenvalues --    4.11728   4.12621   4.13118   4.15809   4.17879
 Alpha virt. eigenvalues --    4.18970   4.19916   4.21576   4.22532   4.22990
 Alpha virt. eigenvalues --    4.24842   4.27004   4.30868   4.30901   4.33265
 Alpha virt. eigenvalues --    4.35237   4.36973   4.37271   4.39170   4.39951
 Alpha virt. eigenvalues --    4.43471   4.44686   4.45616   4.47279   4.48624
 Alpha virt. eigenvalues --    4.48911   4.58927   4.60499   4.61525   4.64785
 Alpha virt. eigenvalues --    4.69126   4.69153   4.71434   4.73758   4.74030
 Alpha virt. eigenvalues --    4.75037   4.77067   4.77992   4.79591   4.82359
 Alpha virt. eigenvalues --    4.83800   4.84334   4.89017   4.89094   4.94011
 Alpha virt. eigenvalues --    4.94171   4.95300   4.97242   5.05379   5.08269
 Alpha virt. eigenvalues --    5.10071   5.11095   5.17766   5.18907   5.22924
 Alpha virt. eigenvalues --    5.23580   5.29235   5.31631   5.39655   5.40233
 Alpha virt. eigenvalues --    5.43266   5.44583   5.48200   5.48707   5.66265
 Alpha virt. eigenvalues --    5.70011   5.74728   5.76596   5.91696   5.97462
 Alpha virt. eigenvalues --    7.93940   7.95578   8.01946   8.02528   8.05794
 Alpha virt. eigenvalues --    8.07055   8.10871   8.10985   8.17227   8.18088
 Alpha virt. eigenvalues --    8.33543   8.35755  34.76101  34.77697  34.80834
 Alpha virt. eigenvalues --   34.81884  34.85061  34.86917  34.97211  34.97672
 Alpha virt. eigenvalues --   35.00219  35.01313  35.15163  35.18420
  Beta  occ. eigenvalues --  -10.28454 -10.28453 -10.28335 -10.28333 -10.28315
  Beta  occ. eigenvalues --  -10.28313 -10.28237 -10.28236 -10.28023 -10.28022
  Beta  occ. eigenvalues --  -10.27736 -10.27734  -0.94160  -0.93777  -0.84161
  Beta  occ. eigenvalues --   -0.84126  -0.83955  -0.83764  -0.71312  -0.71281
  Beta  occ. eigenvalues --   -0.67975  -0.67963  -0.59787  -0.59650  -0.57478
  Beta  occ. eigenvalues --   -0.56946  -0.53452  -0.52742  -0.50962  -0.50903
  Beta  occ. eigenvalues --   -0.50011  -0.49585  -0.47339  -0.47049  -0.45181
  Beta  occ. eigenvalues --   -0.45043  -0.41261  -0.41102  -0.39684  -0.39295
  Beta  occ. eigenvalues --   -0.39291  -0.39130  -0.29813  -0.27916
  Beta virt. eigenvalues --    0.03817   0.04558   0.10521   0.12216   0.13291
  Beta virt. eigenvalues --    0.14298   0.14627   0.15502   0.15606   0.15897
  Beta virt. eigenvalues --    0.16864   0.16894   0.17119   0.18212   0.19895
  Beta virt. eigenvalues --    0.20776   0.21418   0.22641   0.23052   0.23648
  Beta virt. eigenvalues --    0.24845   0.25631   0.25839   0.26903   0.27776
  Beta virt. eigenvalues --    0.28136   0.28883   0.29129   0.29729   0.30406
  Beta virt. eigenvalues --    0.31130   0.31754   0.31814   0.32096   0.32777
  Beta virt. eigenvalues --    0.33209   0.34119   0.35040   0.35312   0.37263
  Beta virt. eigenvalues --    0.37352   0.38222   0.39561   0.40947   0.41227
  Beta virt. eigenvalues --    0.41275   0.43064   0.43789   0.45076   0.45640
  Beta virt. eigenvalues --    0.45906   0.46225   0.47445   0.47837   0.48095
  Beta virt. eigenvalues --    0.48373   0.48844   0.49132   0.49550   0.49707
  Beta virt. eigenvalues --    0.50431   0.50433   0.51210   0.51713   0.52379
  Beta virt. eigenvalues --    0.52594   0.53214   0.54235   0.54247   0.54928
  Beta virt. eigenvalues --    0.56876   0.57278   0.57371   0.59116   0.59140
  Beta virt. eigenvalues --    0.59553   0.60927   0.62440   0.63020   0.64035
  Beta virt. eigenvalues --    0.64600   0.66399   0.67711   0.68279   0.69124
  Beta virt. eigenvalues --    0.70731   0.72220   0.72742   0.73234   0.74956
  Beta virt. eigenvalues --    0.76460   0.77978   0.78185   0.80405   0.81454
  Beta virt. eigenvalues --    0.81717   0.81921   0.82817   0.86649   0.86848
  Beta virt. eigenvalues --    0.87295   0.88349   0.90714   0.91268   0.92182
  Beta virt. eigenvalues --    0.92355   0.95052   0.95954   0.98366   0.98845
  Beta virt. eigenvalues --    1.00590   1.03192   1.03686   1.03895   1.04219
  Beta virt. eigenvalues --    1.06508   1.06871   1.08106   1.09530   1.11270
  Beta virt. eigenvalues --    1.13080   1.13201   1.14180   1.14535   1.15381
  Beta virt. eigenvalues --    1.16003   1.16113   1.16579   1.18760   1.20337
  Beta virt. eigenvalues --    1.21204   1.22527   1.23312   1.23501   1.24524
  Beta virt. eigenvalues --    1.25014   1.25678   1.26714   1.26773   1.28368
  Beta virt. eigenvalues --    1.28599   1.30208   1.31948   1.32326   1.32603
  Beta virt. eigenvalues --    1.34210   1.34617   1.35440   1.36826   1.38268
  Beta virt. eigenvalues --    1.38657   1.39426   1.40459   1.40761   1.41722
  Beta virt. eigenvalues --    1.42032   1.42439   1.43661   1.44987   1.45154
  Beta virt. eigenvalues --    1.45729   1.46511   1.46555   1.46642   1.48526
  Beta virt. eigenvalues --    1.49977   1.50144   1.50815   1.53084   1.55453
  Beta virt. eigenvalues --    1.55848   1.57430   1.57711   1.58246   1.60703
  Beta virt. eigenvalues --    1.60823   1.62372   1.63126   1.64875   1.67319
  Beta virt. eigenvalues --    1.68422   1.69557   1.69998   1.72106   1.75508
  Beta virt. eigenvalues --    1.75511   1.79735   1.80381   1.82376   1.83338
  Beta virt. eigenvalues --    1.86559   1.87784   1.89267   1.89584   1.91267
  Beta virt. eigenvalues --    1.92306   1.95740   1.99906   2.01110   2.01313
  Beta virt. eigenvalues --    2.03882   2.04956   2.06824   2.07477   2.08657
  Beta virt. eigenvalues --    2.08847   2.11541   2.12212   2.13167   2.15335
  Beta virt. eigenvalues --    2.18632   2.19497   2.19897   2.20399   2.22187
  Beta virt. eigenvalues --    2.22970   2.23070   2.23822   2.25497   2.26049
  Beta virt. eigenvalues --    2.28553   2.32255   2.37053   2.37805   2.40168
  Beta virt. eigenvalues --    2.42528   2.45920   2.46660   2.48427   2.49479
  Beta virt. eigenvalues --    2.49925   2.50178   2.52739   2.54071   2.54381
  Beta virt. eigenvalues --    2.55034   2.57104   2.57373   2.60299   2.60701
  Beta virt. eigenvalues --    2.61923   2.64062   2.64282   2.65084   2.66409
  Beta virt. eigenvalues --    2.67647   2.68256   2.70144   2.72143   2.72263
  Beta virt. eigenvalues --    2.73055   2.73152   2.74759   2.75870   2.76652
  Beta virt. eigenvalues --    2.77479   2.77588   2.78766   2.80347   2.81004
  Beta virt. eigenvalues --    2.81435   2.81775   2.82307   2.83654   2.84217
  Beta virt. eigenvalues --    2.84714   2.85889   2.86951   2.88694   2.88711
  Beta virt. eigenvalues --    2.89704   2.89849   2.92218   2.92631   2.93074
  Beta virt. eigenvalues --    2.94352   2.94580   2.94892   2.95866   2.98652
  Beta virt. eigenvalues --    3.01700   3.01744   3.02788   3.03974   3.06101
  Beta virt. eigenvalues --    3.06366   3.08152   3.08815   3.09391   3.10830
  Beta virt. eigenvalues --    3.12063   3.12399   3.12562   3.13877   3.14702
  Beta virt. eigenvalues --    3.14844   3.16894   3.17092   3.18387   3.18666
  Beta virt. eigenvalues --    3.19337   3.19505   3.19994   3.20847   3.20963
  Beta virt. eigenvalues --    3.22246   3.22464   3.23260   3.23336   3.24045
  Beta virt. eigenvalues --    3.25293   3.25937   3.26818   3.27586   3.28044
  Beta virt. eigenvalues --    3.28694   3.29196   3.30035   3.31093   3.31228
  Beta virt. eigenvalues --    3.32337   3.32836   3.33080   3.33528   3.34305
  Beta virt. eigenvalues --    3.34738   3.35311   3.35937   3.37570   3.38290
  Beta virt. eigenvalues --    3.38838   3.39278   3.41812   3.43545   3.43683
  Beta virt. eigenvalues --    3.44737   3.45510   3.46297   3.46546   3.46888
  Beta virt. eigenvalues --    3.48164   3.48780   3.48911   3.49398   3.51042
  Beta virt. eigenvalues --    3.51238   3.51882   3.53319   3.54187   3.54382
  Beta virt. eigenvalues --    3.54622   3.55346   3.59127   3.59325   3.61650
  Beta virt. eigenvalues --    3.63268   3.64472   3.64678   3.64818   3.64960
  Beta virt. eigenvalues --    3.67767   3.68401   3.70042   3.71489   3.71713
  Beta virt. eigenvalues --    3.73822   3.76159   3.76291   3.78155   3.78690
  Beta virt. eigenvalues --    3.84182   3.84603   3.85135   3.86039   3.86237
  Beta virt. eigenvalues --    3.87703   3.89536   3.90193   3.92493   3.93486
  Beta virt. eigenvalues --    3.94231   3.95272   3.99267   3.99319   4.01742
  Beta virt. eigenvalues --    4.04023   4.08068   4.08948   4.08969   4.10577
  Beta virt. eigenvalues --    4.11728   4.12621   4.13118   4.15809   4.17879
  Beta virt. eigenvalues --    4.18970   4.19916   4.21576   4.22532   4.22990
  Beta virt. eigenvalues --    4.24842   4.27004   4.30868   4.30901   4.33265
  Beta virt. eigenvalues --    4.35237   4.36973   4.37271   4.39170   4.39951
  Beta virt. eigenvalues --    4.43471   4.44686   4.45616   4.47279   4.48624
  Beta virt. eigenvalues --    4.48911   4.58927   4.60499   4.61525   4.64785
  Beta virt. eigenvalues --    4.69126   4.69153   4.71434   4.73758   4.74030
  Beta virt. eigenvalues --    4.75037   4.77067   4.77992   4.79591   4.82359
  Beta virt. eigenvalues --    4.83800   4.84334   4.89017   4.89094   4.94011
  Beta virt. eigenvalues --    4.94171   4.95300   4.97242   5.05379   5.08269
  Beta virt. eigenvalues --    5.10071   5.11095   5.17766   5.18907   5.22924
  Beta virt. eigenvalues --    5.23580   5.29235   5.31631   5.39655   5.40233
  Beta virt. eigenvalues --    5.43266   5.44583   5.48200   5.48707   5.66265
  Beta virt. eigenvalues --    5.70011   5.74728   5.76596   5.91696   5.97462
  Beta virt. eigenvalues --    7.93940   7.95578   8.01946   8.02528   8.05794
  Beta virt. eigenvalues --    8.07055   8.10871   8.10985   8.17227   8.18088
  Beta virt. eigenvalues --    8.33543   8.35755  34.76101  34.77697  34.80834
  Beta virt. eigenvalues --   34.81884  34.85061  34.86917  34.97211  34.97672
  Beta virt. eigenvalues --   35.00219  35.01313  35.15163  35.18420
          Condensed to atoms (all electrons):
               1          2          3          4          5          6
     1  C    5.121279   0.012269   0.422877  -0.001778   0.000114  -0.003237
     2  C    0.012269   5.225781  -0.001944   0.423139  -0.018624  -0.044874
     3  H    0.422877  -0.001944   0.497386   0.000036  -0.000045  -0.000040
     4  H   -0.001778   0.423139   0.000036   0.480928  -0.001631   0.001697
     5  C    0.000114  -0.018624  -0.000045  -0.001631   5.087704   0.556168
     6  C   -0.003237  -0.044874  -0.000040   0.001697   0.556168   5.225885
     7  H    0.000208  -0.000773  -0.000000  -0.000071   0.423394  -0.028667
     8  H   -0.000441   0.001696   0.000005   0.000013  -0.041942   0.423154
     9  C    0.001069   0.000862  -0.000002  -0.000678  -0.073059   0.273322
    10  H   -0.000016  -0.000272  -0.000001  -0.000049  -0.003702  -0.033788
    11  H    0.000090  -0.001269   0.000000   0.000009   0.006560  -0.049199
    12  C   -0.000092   0.006117   0.000002   0.001155   0.314131  -0.078203
    13  H   -0.000001   0.000015   0.000000  -0.000002  -0.037663   0.004911
    14  C    0.000110  -0.003237  -0.000000  -0.000442  -0.067236   0.012271
    15  H   -0.000000  -0.000040  -0.000000   0.000005   0.007258  -0.001943
    16  C   -0.000515   0.007224  -0.000000   0.000440   0.005216  -0.076225
    17  H   -0.000074  -0.001313  -0.000001  -0.000845   0.011037  -0.001108
    18  H    0.000001   0.000596   0.000000   0.000086  -0.002243   0.010903
    19  C   -0.067246   0.556221   0.007258  -0.041906   0.000220  -0.018616
    20  H    0.003776  -0.028613  -0.000124  -0.005763   0.000146  -0.000774
    21  C    0.600381  -0.078211  -0.033099   0.005828   0.000409   0.006117
    22  H   -0.027558   0.004918  -0.006361  -0.000086   0.000012   0.000015
    23  C   -0.089143   0.273338   0.005404  -0.016215   0.001289   0.000861
    24  H    0.012242  -0.049216  -0.000142  -0.004112   0.002584  -0.001267
    25  H    0.005969  -0.033788   0.000010   0.000125   0.000244  -0.000272
    26  C    0.290805  -0.076209  -0.030483   0.004118  -0.001539   0.007222
    27  H   -0.036373   0.010900  -0.004625  -0.000144   0.000358   0.000596
    28  H   -0.034736  -0.001105   0.001508  -0.000146  -0.002759  -0.001310
               7          8          9         10         11         12
     1  C    0.000208  -0.000441   0.001069  -0.000016   0.000090  -0.000092
     2  C   -0.000773   0.001696   0.000862  -0.000272  -0.001269   0.006117
     3  H   -0.000000   0.000005  -0.000002  -0.000001   0.000000   0.000002
     4  H   -0.000071   0.000013  -0.000678  -0.000049   0.000009   0.001155
     5  C    0.423394  -0.041942  -0.073059  -0.003702   0.006560   0.314131
     6  C   -0.028667   0.423154   0.273322  -0.033788  -0.049199  -0.078203
     7  H    0.487814  -0.005762   0.003772  -0.000305  -0.000071  -0.031499
     8  H   -0.005762   0.480858  -0.016184   0.000123  -0.004111   0.005829
     9  C    0.003772  -0.016184   4.919394   0.380862   0.442763   0.034184
    10  H   -0.000305   0.000123   0.380862   0.580995  -0.021926   0.001897
    11  H   -0.000071  -0.004111   0.442763  -0.021926   0.543946  -0.003274
    12  C   -0.031499   0.005829   0.034184   0.001897  -0.003274   4.990029
    13  H   -0.003458  -0.000086  -0.000511  -0.000053   0.000038   0.425459
    14  C    0.003772  -0.001778  -0.089160   0.005973   0.012242   0.600377
    15  H   -0.000124   0.000036   0.005404   0.000010  -0.000142  -0.033110
    16  C   -0.000729   0.004117   0.377733  -0.027011  -0.048103  -0.066104
    17  H    0.000023  -0.000146  -0.035685   0.007836  -0.008750  -0.015755
    18  H    0.000040  -0.000144  -0.042521  -0.008414  -0.001418   0.005694
    19  C    0.000147  -0.001631   0.001292   0.000244   0.002585   0.000409
    20  H    0.000007  -0.000071   0.001396   0.000088  -0.000271  -0.000103
    21  C   -0.000103   0.001156  -0.000172   0.000023  -0.000383  -0.000179
    22  H   -0.000001  -0.000002  -0.000041  -0.000000  -0.000002   0.000000
    23  C    0.001393  -0.000676   0.000178  -0.000011   0.000031  -0.000171
    24  H   -0.000270   0.000009   0.000031   0.000004  -0.000015  -0.000383
    25  H    0.000088  -0.000049  -0.000011   0.000001   0.000004   0.000023
    26  C   -0.001122   0.000433  -0.000617   0.000044  -0.000054   0.000491
    27  H   -0.000018   0.000086  -0.000026   0.000001  -0.000001  -0.000050
    28  H    0.001502  -0.000846   0.000283  -0.000012   0.000025   0.000542
              13         14         15         16         17         18
     1  C   -0.000001   0.000110  -0.000000  -0.000515  -0.000074   0.000001
     2  C    0.000015  -0.003237  -0.000040   0.007224  -0.001313   0.000596
     3  H    0.000000  -0.000000  -0.000000  -0.000000  -0.000001   0.000000
     4  H   -0.000002  -0.000442   0.000005   0.000440  -0.000845   0.000086
     5  C   -0.037663  -0.067236   0.007258   0.005216   0.011037  -0.002243
     6  C    0.004911   0.012271  -0.001943  -0.076225  -0.001108   0.010903
     7  H   -0.003458   0.003772  -0.000124  -0.000729   0.000023   0.000040
     8  H   -0.000086  -0.001778   0.000036   0.004117  -0.000146  -0.000144
     9  C   -0.000511  -0.089160   0.005404   0.377733  -0.035685  -0.042521
    10  H   -0.000053   0.005973   0.000010  -0.027011   0.007836  -0.008414
    11  H    0.000038   0.012242  -0.000142  -0.048103  -0.008750  -0.001418
    12  C    0.425459   0.600377  -0.033110  -0.066104  -0.015755   0.005694
    13  H    0.495286  -0.027585  -0.006360   0.004891  -0.000400  -0.000136
    14  C   -0.027585   5.121250   0.422880   0.290779  -0.034721  -0.036375
    15  H   -0.006360   0.422880   0.497398  -0.030477   0.001508  -0.004625
    16  C    0.004891   0.290779  -0.030477   4.910073   0.397033   0.428625
    17  H   -0.000400  -0.034721   0.001508   0.397033   0.595620  -0.022235
    18  H   -0.000136  -0.036375  -0.004625   0.428625  -0.022235   0.547132
    19  C    0.000012   0.000114  -0.000045  -0.001542  -0.002760   0.000358
    20  H   -0.000001   0.000208  -0.000000  -0.001123   0.001501  -0.000018
    21  C    0.000000  -0.000092   0.000002   0.000492   0.000541  -0.000050
    22  H    0.000000  -0.000001   0.000000   0.000009  -0.000004  -0.000001
    23  C   -0.000041   0.001069  -0.000002  -0.000618   0.000283  -0.000026
    24  H   -0.000002   0.000090   0.000000  -0.000054   0.000025  -0.000001
    25  H   -0.000000  -0.000016  -0.000001   0.000044  -0.000012   0.000001
    26  C    0.000009  -0.000515  -0.000000   0.000907   0.000141  -0.000002
    27  H   -0.000001   0.000001   0.000000  -0.000002   0.000003  -0.000000
    28  H   -0.000004  -0.000074  -0.000001   0.000141  -0.000029   0.000003
              19         20         21         22         23         24
     1  C   -0.067246   0.003776   0.600381  -0.027558  -0.089143   0.012242
     2  C    0.556221  -0.028613  -0.078211   0.004918   0.273338  -0.049216
     3  H    0.007258  -0.000124  -0.033099  -0.006361   0.005404  -0.000142
     4  H   -0.041906  -0.005763   0.005828  -0.000086  -0.016215  -0.004112
     5  C    0.000220   0.000146   0.000409   0.000012   0.001289   0.002584
     6  C   -0.018616  -0.000774   0.006117   0.000015   0.000861  -0.001267
     7  H    0.000147   0.000007  -0.000103  -0.000001   0.001393  -0.000270
     8  H   -0.001631  -0.000071   0.001156  -0.000002  -0.000676   0.000009
     9  C    0.001292   0.001396  -0.000172  -0.000041   0.000178   0.000031
    10  H    0.000244   0.000088   0.000023  -0.000000  -0.000011   0.000004
    11  H    0.002585  -0.000271  -0.000383  -0.000002   0.000031  -0.000015
    12  C    0.000409  -0.000103  -0.000179   0.000000  -0.000171  -0.000383
    13  H    0.000012  -0.000001   0.000000   0.000000  -0.000041  -0.000002
    14  C    0.000114   0.000208  -0.000092  -0.000001   0.001069   0.000090
    15  H   -0.000045  -0.000000   0.000002   0.000000  -0.000002   0.000000
    16  C   -0.001542  -0.001123   0.000492   0.000009  -0.000618  -0.000054
    17  H   -0.002760   0.001501   0.000541  -0.000004   0.000283   0.000025
    18  H    0.000358  -0.000018  -0.000050  -0.000001  -0.000026  -0.000001
    19  C    5.087648   0.423361   0.314138  -0.037688  -0.073063   0.006563
    20  H    0.423361   0.487815  -0.031521  -0.003458   0.003772  -0.000071
    21  C    0.314138  -0.031521   4.989981   0.425449   0.034168  -0.003274
    22  H   -0.037688  -0.003458   0.425449   0.495296  -0.000512   0.000038
    23  C   -0.073063   0.003772   0.034168  -0.000512   4.919342   0.442767
    24  H    0.006563  -0.000071  -0.003274   0.000038   0.442767   0.544048
    25  H   -0.003704  -0.000306   0.001902  -0.000053   0.380871  -0.021926
    26  C    0.005216  -0.000730  -0.066113   0.004892   0.377720  -0.048112
    27  H   -0.002241   0.000040   0.005692  -0.000137  -0.042513  -0.001417
    28  H    0.011032   0.000023  -0.015740  -0.000400  -0.035696  -0.008752
              25         26         27         28
     1  C    0.005969   0.290805  -0.036373  -0.034736
     2  C   -0.033788  -0.076209   0.010900  -0.001105
     3  H    0.000010  -0.030483  -0.004625   0.001508
     4  H    0.000125   0.004118  -0.000144  -0.000146
     5  C    0.000244  -0.001539   0.000358  -0.002759
     6  C   -0.000272   0.007222   0.000596  -0.001310
     7  H    0.000088  -0.001122  -0.000018   0.001502
     8  H   -0.000049   0.000433   0.000086  -0.000846
     9  C   -0.000011  -0.000617  -0.000026   0.000283
    10  H    0.000001   0.000044   0.000001  -0.000012
    11  H    0.000004  -0.000054  -0.000001   0.000025
    12  C    0.000023   0.000491  -0.000050   0.000542
    13  H   -0.000000   0.000009  -0.000001  -0.000004
    14  C   -0.000016  -0.000515   0.000001  -0.000074
    15  H   -0.000001  -0.000000   0.000000  -0.000001
    16  C    0.000044   0.000907  -0.000002   0.000141
    17  H   -0.000012   0.000141   0.000003  -0.000029
    18  H    0.000001  -0.000002  -0.000000   0.000003
    19  C   -0.003704   0.005216  -0.002241   0.011032
    20  H   -0.000306  -0.000730   0.000040   0.000023
    21  C    0.001902  -0.066113   0.005692  -0.015740
    22  H   -0.000053   0.004892  -0.000137  -0.000400
    23  C    0.380871   0.377720  -0.042513  -0.035696
    24  H   -0.021926  -0.048112  -0.001417  -0.008752
    25  H    0.580962  -0.027006  -0.008414   0.007837
    26  C   -0.027006   4.910024   0.428623   0.397027
    27  H   -0.008414   0.428623   0.547121  -0.022243
    28  H    0.007837   0.397027  -0.022243   0.595706
          Atomic-Atomic Spin Densities.
               1          2          3          4          5          6
     1  C   -0.000001  -0.000000   0.000000   0.000000  -0.000000  -0.000000
     2  C   -0.000000   0.000000   0.000000   0.000000  -0.000000  -0.000000
     3  H    0.000000   0.000000   0.000000  -0.000000  -0.000000   0.000000
     4  H    0.000000   0.000000  -0.000000   0.000000   0.000000  -0.000000
     5  C   -0.000000  -0.000000  -0.000000   0.000000  -0.000001   0.000000
     6  C   -0.000000  -0.000000   0.000000  -0.000000   0.000000  -0.000000
     7  H   -0.000000   0.000000   0.000000  -0.000000  -0.000000  -0.000000
     8  H    0.000000   0.000000  -0.000000  -0.000000  -0.000000  -0.000000
     9  C   -0.000000   0.000000  -0.000000  -0.000000  -0.000000   0.000000
    10  H   -0.000000  -0.000000  -0.000000   0.000000  -0.000000   0.000000
    11  H    0.000000  -0.000000   0.000000   0.000000   0.000000  -0.000000
    12  C   -0.000000   0.000000   0.000000  -0.000000   0.000000   0.000000
    13  H    0.000000   0.000000   0.000000   0.000000   0.000000  -0.000000
    14  C    0.000000   0.000000  -0.000000  -0.000000   0.000000   0.000000
    15  H    0.000000  -0.000000  -0.000000   0.000000  -0.000000  -0.000000
    16  C   -0.000000   0.000000   0.000000   0.000000  -0.000000  -0.000000
    17  H   -0.000000  -0.000000  -0.000000   0.000000   0.000000  -0.000000
    18  H   -0.000000   0.000000  -0.000000   0.000000   0.000000  -0.000000
    19  C    0.000000  -0.000000   0.000000   0.000000  -0.000000   0.000000
    20  H   -0.000000   0.000000   0.000000   0.000000  -0.000000  -0.000000
    21  C    0.000000  -0.000000  -0.000000  -0.000000   0.000000  -0.000000
    22  H   -0.000000   0.000000  -0.000000  -0.000000   0.000000  -0.000000
    23  C   -0.000000  -0.000000   0.000000  -0.000000   0.000000  -0.000000
    24  H   -0.000000   0.000000   0.000000  -0.000000   0.000000   0.000000
    25  H   -0.000000  -0.000000   0.000000   0.000000  -0.000000   0.000000
    26  C    0.000000   0.000000  -0.000000  -0.000000   0.000000  -0.000000
    27  H    0.000000   0.000000  -0.000000   0.000000   0.000000  -0.000000
    28  H    0.000000   0.000000  -0.000000   0.000000  -0.000000   0.000000
               7          8          9         10         11         12
     1  C   -0.000000   0.000000  -0.000000  -0.000000   0.000000  -0.000000
     2  C    0.000000   0.000000   0.000000  -0.000000  -0.000000   0.000000
     3  H    0.000000  -0.000000  -0.000000  -0.000000   0.000000   0.000000
     4  H   -0.000000  -0.000000  -0.000000   0.000000   0.000000  -0.000000
     5  C   -0.000000  -0.000000  -0.000000  -0.000000   0.000000   0.000000
     6  C   -0.000000  -0.000000   0.000000   0.000000  -0.000000   0.000000
     7  H    0.000001  -0.000000   0.000000  -0.000000  -0.000000  -0.000000
     8  H   -0.000000  -0.000000   0.000000  -0.000000   0.000000   0.000000
     9  C    0.000000   0.000000  -0.000001  -0.000000   0.000000  -0.000000
    10  H   -0.000000  -0.000000  -0.000000   0.000000  -0.000000   0.000000
    11  H   -0.000000   0.000000   0.000000  -0.000000   0.000000  -0.000000
    12  C   -0.000000   0.000000  -0.000000   0.000000  -0.000000   0.000000
    13  H    0.000000   0.000000   0.000000  -0.000000  -0.000000  -0.000000
    14  C    0.000000  -0.000000   0.000000   0.000000   0.000000  -0.000000
    15  H   -0.000000   0.000000  -0.000000  -0.000000  -0.000000   0.000000
    16  C   -0.000000   0.000000   0.000000  -0.000000  -0.000000   0.000000
    17  H   -0.000000  -0.000000   0.000000   0.000000  -0.000000   0.000000
    18  H    0.000000  -0.000000   0.000000   0.000000  -0.000000  -0.000000
    19  C    0.000000  -0.000000  -0.000000   0.000000  -0.000000  -0.000000
    20  H    0.000000   0.000000   0.000000  -0.000000   0.000000   0.000000
    21  C   -0.000000   0.000000  -0.000000   0.000000   0.000000  -0.000000
    22  H    0.000000  -0.000000  -0.000000   0.000000   0.000000   0.000000
    23  C   -0.000000   0.000000  -0.000000   0.000000   0.000000   0.000000
    24  H   -0.000000  -0.000000  -0.000000   0.000000  -0.000000  -0.000000
    25  H    0.000000  -0.000000  -0.000000  -0.000000  -0.000000  -0.000000
    26  C   -0.000000  -0.000000   0.000000   0.000000  -0.000000  -0.000000
    27  H   -0.000000  -0.000000  -0.000000   0.000000  -0.000000  -0.000000
    28  H    0.000000  -0.000000   0.000000   0.000000  -0.000000  -0.000000
              13         14         15         16         17         18
     1  C    0.000000   0.000000   0.000000  -0.000000  -0.000000  -0.000000
     2  C    0.000000   0.000000  -0.000000   0.000000  -0.000000   0.000000
     3  H    0.000000  -0.000000  -0.000000   0.000000  -0.000000  -0.000000
     4  H    0.000000  -0.000000   0.000000   0.000000   0.000000   0.000000
     5  C    0.000000   0.000000  -0.000000  -0.000000   0.000000   0.000000
     6  C   -0.000000   0.000000  -0.000000  -0.000000  -0.000000  -0.000000
     7  H    0.000000   0.000000  -0.000000  -0.000000  -0.000000   0.000000
     8  H    0.000000  -0.000000   0.000000   0.000000  -0.000000  -0.000000
     9  C    0.000000   0.000000  -0.000000   0.000000   0.000000   0.000000
    10  H   -0.000000   0.000000  -0.000000  -0.000000   0.000000   0.000000
    11  H   -0.000000   0.000000  -0.000000  -0.000000  -0.000000  -0.000000
    12  C   -0.000000  -0.000000   0.000000   0.000000   0.000000  -0.000000
    13  H   -0.000000   0.000000   0.000000  -0.000000  -0.000000   0.000000
    14  C    0.000000   0.000001  -0.000000  -0.000000  -0.000000  -0.000000
    15  H    0.000000  -0.000000  -0.000000   0.000000   0.000000   0.000000
    16  C   -0.000000  -0.000000   0.000000   0.000001  -0.000000  -0.000000
    17  H   -0.000000  -0.000000   0.000000  -0.000000   0.000000   0.000000
    18  H    0.000000  -0.000000   0.000000  -0.000000   0.000000  -0.000000
    19  C   -0.000000   0.000000   0.000000  -0.000000   0.000000  -0.000000
    20  H   -0.000000   0.000000  -0.000000   0.000000  -0.000000   0.000000
    21  C   -0.000000   0.000000  -0.000000   0.000000   0.000000   0.000000
    22  H    0.000000  -0.000000  -0.000000   0.000000  -0.000000   0.000000
    23  C    0.000000   0.000000   0.000000  -0.000000  -0.000000   0.000000
    24  H   -0.000000  -0.000000  -0.000000  -0.000000   0.000000   0.000000
    25  H   -0.000000   0.000000   0.000000  -0.000000  -0.000000  -0.000000
    26  C   -0.000000   0.000000  -0.000000  -0.000000   0.000000   0.000000
    27  H   -0.000000   0.000000   0.000000  -0.000000   0.000000   0.000000
    28  H    0.000000   0.000000   0.000000  -0.000000   0.000000  -0.000000
              19         20         21         22         23         24
     1  C    0.000000  -0.000000   0.000000  -0.000000  -0.000000  -0.000000
     2  C   -0.000000   0.000000  -0.000000   0.000000  -0.000000   0.000000
     3  H    0.000000   0.000000  -0.000000  -0.000000   0.000000   0.000000
     4  H    0.000000   0.000000  -0.000000  -0.000000  -0.000000  -0.000000
     5  C   -0.000000  -0.000000   0.000000   0.000000   0.000000   0.000000
     6  C    0.000000  -0.000000  -0.000000  -0.000000  -0.000000   0.000000
     7  H    0.000000   0.000000  -0.000000   0.000000  -0.000000  -0.000000
     8  H   -0.000000   0.000000   0.000000  -0.000000   0.000000  -0.000000
     9  C   -0.000000   0.000000  -0.000000  -0.000000  -0.000000  -0.000000
    10  H    0.000000  -0.000000   0.000000   0.000000   0.000000   0.000000
    11  H   -0.000000   0.000000   0.000000   0.000000   0.000000  -0.000000
    12  C   -0.000000   0.000000  -0.000000   0.000000   0.000000  -0.000000
    13  H   -0.000000  -0.000000  -0.000000   0.000000   0.000000  -0.000000
    14  C    0.000000   0.000000   0.000000  -0.000000   0.000000  -0.000000
    15  H    0.000000  -0.000000  -0.000000  -0.000000   0.000000  -0.000000
    16  C   -0.000000   0.000000   0.000000   0.000000  -0.000000  -0.000000
    17  H    0.000000  -0.000000   0.000000  -0.000000  -0.000000   0.000000
    18  H   -0.000000   0.000000   0.000000   0.000000   0.000000   0.000000
    19  C    0.000000   0.000000  -0.000000  -0.000000   0.000000  -0.000000
[...]
     4  H    0.000000  -0.000000   0.000000   0.000000
     5  C   -0.000000   0.000000   0.000000  -0.000000
     6  C    0.000000  -0.000000  -0.000000   0.000000
     7  H    0.000000  -0.000000  -0.000000   0.000000
     8  H   -0.000000  -0.000000  -0.000000  -0.000000
     9  C   -0.000000   0.000000  -0.000000   0.000000
    10  H   -0.000000   0.000000   0.000000   0.000000
    11  H   -0.000000  -0.000000  -0.000000  -0.000000
    12  C   -0.000000  -0.000000  -0.000000  -0.000000
    13  H   -0.000000  -0.000000  -0.000000   0.000000
    14  C    0.000000   0.000000   0.000000   0.000000
    15  H    0.000000  -0.000000   0.000000   0.000000
    16  C   -0.000000  -0.000000  -0.000000  -0.000000
    17  H   -0.000000   0.000000   0.000000   0.000000
    18  H   -0.000000   0.000000   0.000000  -0.000000
    19  C    0.000000   0.000000  -0.000000  -0.000000
    20  H    0.000000   0.000000  -0.000000   0.000000
    21  C   -0.000000  -0.000000   0.000000  -0.000000
    22  H    0.000000   0.000000  -0.000000   0.000000
    23  C    0.000000  -0.000000  -0.000000  -0.000000
    24  H    0.000000   0.000000   0.000000   0.000000
    25  H   -0.000000   0.000000  -0.000000  -0.000000
    26  C    0.000000  -0.000001   0.000000   0.000000
    27  H   -0.000000   0.000000   0.000000  -0.000000
    28  H   -0.000000   0.000000  -0.000000  -0.000000
 Mulliken charges and spin densities:
               1          2
     1  C   -0.209983  -0.000001
     2  C   -0.183588   0.000000
     3  H    0.142376   0.000000
     4  H    0.156289   0.000000
     5  C   -0.166401  -0.000001
     6  C   -0.183600   0.000000
     7  H    0.150815   0.000000
     8  H    0.156353  -0.000000
     9  C   -0.183879  -0.000001
    10  H    0.117458   0.000000
    11  H    0.130698   0.000000
    12  C   -0.157415   0.000000
    13  H    0.145683  -0.000000
    14  C   -0.209907   0.000001
    15  H    0.142367  -0.000000
    16  C   -0.175220   0.000000
    17  H    0.108287   0.000000
    18  H    0.124768  -0.000000
    19  C   -0.166374   0.000000
    20  H    0.150813  -0.000000
    21  C   -0.157340   0.000000
    22  H    0.145672   0.000000
    23  C   -0.183800   0.000001
    24  H    0.130615  -0.000000
    25  H    0.117475  -0.000000
    26  C   -0.175168  -0.000000
    27  H    0.124783   0.000000
    28  H    0.108226  -0.000000
 Sum of Mulliken charges =  -0.00000   0.00000
 Mulliken charges and spin densities with hydrogens summed into heavy atoms:
               1          2
     1  C   -0.067607  -0.000001
     2  C   -0.027298   0.000000
     5  C   -0.015586  -0.000000
     6  C   -0.027247   0.000000
     9  C    0.064277  -0.000000
    12  C   -0.011732  -0.000000
    14  C   -0.067541   0.000001
    16  C    0.057834   0.000000
    19  C   -0.015562  -0.000000
    21  C   -0.011668   0.000001
    23  C    0.064290   0.000000
    26  C    0.057840  -0.000000
 Electronic spatial extent (au):  <R**2>=           2356.5486
 Charge=              0.0000 electrons
 Dipole moment (field-independent basis, Debye):
    X=             -0.0001    Y=              0.0001    Z=              0.0000  Tot=              0.0001
 Quadrupole moment (field-independent basis, Debye-Ang):
   XX=            -72.8030   YY=            -69.7449   ZZ=            -76.4498
   XY=             -3.2068   XZ=             -4.0401   YZ=             -1.6943
 Traceless Quadrupole moment (field-independent basis, Debye-Ang):
   XX=              0.1962   YY=              3.2544   ZZ=             -3.4506
   XY=             -3.2068   XZ=             -4.0401   YZ=             -1.6943
 Octapole moment (field-independent basis, Debye-Ang**2):
  XXX=             -0.0065  YYY=              0.0016  ZZZ=             -0.0004  XYY=              0.0016
  XXY=              0.0007  XXZ=             -0.0002  XZZ=             -0.0005  YZZ=             -0.0002
  YYZ=              0.0004  XYZ=              0.0011
 Hexadecapole moment (field-independent basis, Debye-Ang**3):
 XXXX=          -2140.6263 YYYY=           -628.1578 ZZZZ=           -469.1921 XXXY=           -123.2767
 XXXZ=           -180.3095 YYYX=            -72.6125 YYYZ=            -11.1334 ZZZX=           -123.1757
 ZZZY=            -24.6222 XXYY=           -455.5200 XXZZ=           -452.2039 YYZZ=           -198.0820
 XXYZ=            -27.0749 YYXZ=            -43.7041 ZZXY=            -48.6565
 N-N= 6.692604417796D+02 E-N=-2.420258795758D+03  KE= 4.641419228647D+02
                          Isotropic Fermi Contact Couplings
        Atom                 a.u.       MegaHertz       Gauss      10(-4) cm-1
     1  C(13)             -0.00000      -0.00003      -0.00001      -0.00001
     2  C(13)             -0.00000      -0.00005      -0.00002      -0.00002
     3  H(1)               0.00000       0.00001       0.00000       0.00000
     4  H(1)               0.00000       0.00007       0.00002       0.00002
     5  C(13)             -0.00000      -0.00018      -0.00007      -0.00006
     6  C(13)              0.00000       0.00006       0.00002       0.00002
     7  H(1)               0.00000       0.00028       0.00010       0.00009
     8  H(1)              -0.00000      -0.00008      -0.00003      -0.00003
     9  C(13)             -0.00000      -0.00024      -0.00009      -0.00008
    10  H(1)               0.00000       0.00011       0.00004       0.00004
    11  H(1)               0.00000       0.00012       0.00004       0.00004
    12  C(13)              0.00000       0.00013       0.00005       0.00004
    13  H(1)              -0.00000      -0.00023      -0.00008      -0.00008
    14  C(13)              0.00000       0.00002       0.00001       0.00001
    15  H(1)               0.00000       0.00000       0.00000       0.00000
    16  C(13)              0.00000       0.00012       0.00004       0.00004
    17  H(1)              -0.00000      -0.00003      -0.00001      -0.00001
    18  H(1)              -0.00000      -0.00004      -0.00002      -0.00001
    19  C(13)              0.00000       0.00017       0.00006       0.00006
    20  H(1)              -0.00000      -0.00027      -0.00010      -0.00009
    21  C(13)             -0.00000      -0.00012      -0.00004      -0.00004
    22  H(1)               0.00000       0.00022       0.00008       0.00007
    23  C(13)              0.00000       0.00023       0.00008       0.00008
    24  H(1)              -0.00000      -0.00012      -0.00004      -0.00004
    25  H(1)              -0.00000      -0.00010      -0.00004      -0.00003
    26  C(13)             -0.00000      -0.00012      -0.00004      -0.00004
    27  H(1)               0.00000       0.00004       0.00001       0.00001
    28  H(1)               0.00000       0.00002       0.00001       0.00001
 --------------------------------------------------------
       Center         ----  Spin Dipole Couplings  ----
                      3XX-RR        3YY-RR        3ZZ-RR
 --------------------------------------------------------
     1   Atom       -0.000000      0.000000     -0.000000
     2   Atom        0.000000     -0.000000     -0.000000
     3   Atom        0.000000      0.000000     -0.000000
     4   Atom       -0.000000     -0.000000      0.000000
     5   Atom       -0.000000     -0.000000      0.000001
     6   Atom       -0.000000      0.000000      0.000000
     7   Atom        0.000000     -0.000000      0.000000
     8   Atom        0.000000      0.000000     -0.000000
     9   Atom       -0.000000      0.000000     -0.000000
    10   Atom        0.000000      0.000000     -0.000000
    11   Atom        0.000000     -0.000000      0.000000
    12   Atom        0.000000      0.000001     -0.000001
    13   Atom       -0.000000      0.000000     -0.000000
    14   Atom        0.000000     -0.000000     -0.000000
    15   Atom       -0.000000     -0.000000      0.000000
    16   Atom        0.000000     -0.000000      0.000000
    17   Atom        0.000000     -0.000000     -0.000000
    18   Atom        0.000000      0.000000     -0.000000
    19   Atom        0.000000      0.000000     -0.000001
    20   Atom       -0.000000      0.000000     -0.000000
    21   Atom       -0.000000     -0.000001      0.000001
    22   Atom        0.000000     -0.000000      0.000000
    23   Atom        0.000000     -0.000000      0.000000
    24   Atom       -0.000000      0.000000     -0.000000
    25   Atom       -0.000000     -0.000000      0.000000
    26   Atom       -0.000000      0.000000     -0.000000
    27   Atom        0.000000     -0.000000      0.000000
    28   Atom       -0.000000      0.000000      0.000000
 --------------------------------------------------------
                        XY            XZ            YZ
 --------------------------------------------------------
     1   Atom        0.000000     -0.000001      0.000000
     2   Atom        0.000000      0.000000      0.000000
     3   Atom       -0.000000      0.000000      0.000000
     4   Atom       -0.000000     -0.000000      0.000000
     5   Atom        0.000000     -0.000000     -0.000000
     6   Atom       -0.000000     -0.000000     -0.000000
     7   Atom        0.000000      0.000000     -0.000000
     8   Atom        0.000000      0.000000     -0.000000
     9   Atom       -0.000000      0.000000     -0.000000
    10   Atom        0.000000     -0.000000      0.000000
    11   Atom       -0.000000     -0.000000     -0.000000
    12   Atom        0.000000     -0.000000     -0.000000
    13   Atom        0.000000     -0.000000     -0.000000
    14   Atom       -0.000000      0.000001     -0.000000
    15   Atom        0.000000     -0.000000     -0.000000
    16   Atom       -0.000000     -0.000000     -0.000000
    17   Atom        0.000000      0.000000      0.000000
    18   Atom       -0.000000      0.000000     -0.000000
    19   Atom       -0.000000      0.000000      0.000000
    20   Atom       -0.000000     -0.000000      0.000000
    21   Atom       -0.000000      0.000000      0.000000
    22   Atom       -0.000000      0.000000      0.000000
    23   Atom        0.000000     -0.000000      0.000000
    24   Atom        0.000000      0.000000      0.000000
    25   Atom       -0.000000      0.000000     -0.000000
    26   Atom        0.000000      0.000000      0.000000
    27   Atom        0.000000     -0.000000      0.000000
    28   Atom       -0.000000     -0.000000     -0.000000
 --------------------------------------------------------


 ---------------------------------------------------------------------------------
              Anisotropic Spin Dipole Couplings in Principal Axis System
 ---------------------------------------------------------------------------------

       Atom             a.u.   MegaHertz   Gauss  10(-4) cm-1        Axes

              Baa    -0.0000    -0.000    -0.000    -0.000  0.7761 -0.1302  0.6171
     1 C(13)  Bbb     0.0000     0.000     0.000     0.000  0.1160  0.9912  0.0634
              Bcc     0.0000     0.000     0.000     0.000 -0.6199  0.0224  0.7844
 
              Baa    -0.0000    -0.000    -0.000    -0.000 -0.5811  0.2635  0.7700
     2 C(13)  Bbb    -0.0000    -0.000    -0.000    -0.000 -0.1006  0.9156 -0.3893
              Bcc     0.0000     0.000     0.000     0.000  0.8076  0.3037  0.5055
 
              Baa    -0.0000    -0.000    -0.000    -0.000 -0.3488 -0.1817  0.9194
     3 H(1)   Bbb     0.0000     0.000     0.000     0.000  0.9304  0.0509  0.3631
              Bcc     0.0000     0.000     0.000     0.000 -0.1128  0.9820  0.1513
 
              Baa    -0.0000    -0.000    -0.000    -0.000  0.9670  0.2032  0.1537
     4 H(1)   Bbb    -0.0000    -0.000    -0.000    -0.000 -0.1545  0.9474 -0.2804
              Bcc     0.0000     0.000     0.000     0.000 -0.2026  0.2474  0.9475
 
              Baa    -0.0000    -0.000    -0.000    -0.000 -0.6748  0.7369  0.0400
     5 C(13)  Bbb    -0.0000    -0.000    -0.000    -0.000  0.7318  0.6610  0.1659
              Bcc     0.0000     0.000     0.000     0.000 -0.0958 -0.1412  0.9853
 
              Baa    -0.0000    -0.000    -0.000    -0.000  0.8548  0.3412  0.3910
     6 C(13)  Bbb     0.0000     0.000     0.000     0.000 -0.2025  0.9130 -0.3541
              Bcc     0.0000     0.000     0.000     0.000 -0.4778  0.2235  0.8495
 
              Baa    -0.0000    -0.000    -0.000    -0.000 -0.4960  0.8347  0.2392
     7 H(1)   Bbb     0.0000     0.000     0.000     0.000  0.8339  0.5347 -0.1365
              Bcc     0.0000     0.000     0.000     0.000  0.2419 -0.1318  0.9613
 
              Baa    -0.0000    -0.000    -0.000    -0.000 -0.1568  0.2885  0.9446
     8 H(1)   Bbb     0.0000     0.000     0.000     0.000 -0.1458  0.9392 -0.3110
              Bcc     0.0000     0.000     0.000     0.000  0.9768  0.1865  0.1052
 
              Baa    -0.0000    -0.000    -0.000    -0.000  0.8132  0.1618 -0.5590
     9 C(13)  Bbb    -0.0000    -0.000    -0.000    -0.000  0.4008  0.5406  0.7396
              Bcc     0.0000     0.000     0.000     0.000 -0.4219  0.8256 -0.3748
 
              Baa    -0.0000    -0.000    -0.000    -0.000  0.5106 -0.1991  0.8365
    10 H(1)   Bbb     0.0000     0.000     0.000     0.000 -0.5884  0.6285  0.5087
              Bcc     0.0000     0.000     0.000     0.000  0.6270  0.7519 -0.2038
 
              Baa    -0.0000    -0.000    -0.000    -0.000  0.5673  0.8204  0.0717
    11 H(1)   Bbb     0.0000     0.000     0.000     0.000 -0.4673  0.2490  0.8483
              Bcc     0.0000     0.000     0.000     0.000  0.6781 -0.5147  0.5246
 
              Baa    -0.0000    -0.000    -0.000    -0.000  0.1603  0.0651  0.9849
    12 C(13)  Bbb     0.0000     0.000     0.000     0.000  0.8824 -0.4566 -0.1134
              Bcc     0.0000     0.000     0.000     0.000  0.4423  0.8873 -0.1306
 
              Baa    -0.0000    -0.000    -0.000    -0.000  0.3250  0.1929  0.9258
    13 H(1)   Bbb    -0.0000    -0.000    -0.000    -0.000  0.9208 -0.2878 -0.2633
              Bcc     0.0000     0.000     0.000     0.000  0.2157  0.9380 -0.2712
 
              Baa    -0.0000    -0.000    -0.000    -0.000 -0.5700  0.0397  0.8207
    14 C(13)  Bbb    -0.0000    -0.000    -0.000    -0.000  0.1420  0.9886  0.0508
              Bcc     0.0000     0.000     0.000     0.000  0.8093 -0.1455  0.5691
 
              Baa    -0.0000    -0.000    -0.000    -0.000 -0.1704  0.9752  0.1411
    15 H(1)   Bbb    -0.0000    -0.000    -0.000    -0.000  0.9368  0.1160  0.3300
              Bcc     0.0000     0.000     0.000     0.000 -0.3055 -0.1884  0.9334
 
              Baa    -0.0000    -0.000    -0.000    -0.000  0.3474  0.8749  0.3374
    16 C(13)  Bbb    -0.0000    -0.000    -0.000    -0.000  0.6517 -0.4839  0.5841
              Bcc     0.0000     0.000     0.000     0.000 -0.6743 -0.0170  0.7383
 
              Baa    -0.0000    -0.000    -0.000    -0.000 -0.3907  0.7983 -0.4583
    17 H(1)   Bbb    -0.0000    -0.000    -0.000    -0.000 -0.6769  0.0882  0.7307
              Bcc     0.0000     0.000     0.000     0.000  0.6238  0.5957  0.5060
 
              Baa    -0.0000    -0.000    -0.000    -0.000  0.6009  0.6070  0.5201
    18 H(1)   Bbb    -0.0000    -0.000    -0.000    -0.000 -0.5469 -0.1623  0.8213
              Bcc     0.0000     0.000     0.000     0.000 -0.5829  0.7780 -0.2345
 
              Baa    -0.0000    -0.000    -0.000    -0.000 -0.0086 -0.0898  0.9959
    19 C(13)  Bbb     0.0000     0.000     0.000     0.000  0.8151  0.5763  0.0590
              Bcc     0.0000     0.000     0.000     0.000 -0.5792  0.8123  0.0682
 
              Baa    -0.0000    -0.000    -0.000    -0.000  0.3647 -0.0536  0.9296
    20 H(1)   Bbb    -0.0000    -0.000    -0.000    -0.000  0.7930  0.5411 -0.2799
              Bcc     0.0000     0.000     0.000     0.000 -0.4880  0.8392  0.2399
 
              Baa    -0.0000    -0.000    -0.000    -0.000  0.4064  0.9040 -0.1329
    21 C(13)  Bbb    -0.0000    -0.000    -0.000    -0.000  0.8901 -0.4246 -0.1658
              Bcc     0.0000     0.000     0.000     0.000  0.2064  0.0509  0.9772
 
              Baa    -0.0000    -0.000    -0.000    -0.000  0.1827  0.9477 -0.2618
    22 H(1)   Bbb     0.0000     0.000     0.000     0.000  0.9086 -0.2645 -0.3233
              Bcc     0.0000     0.000     0.000     0.000  0.3756  0.1788  0.9093
 
              Baa    -0.0000    -0.000    -0.000    -0.000 -0.4171  0.8295 -0.3713
    23 C(13)  Bbb     0.0000     0.000     0.000     0.000  0.4006  0.5345  0.7442
              Bcc     0.0000     0.000     0.000     0.000  0.8158  0.1617 -0.5553
 
              Baa    -0.0000    -0.000    -0.000    -0.000  0.6638 -0.4960  0.5597
    24 H(1)   Bbb    -0.0000    -0.000    -0.000    -0.000 -0.4993  0.2633  0.8255
              Bcc     0.0000     0.000     0.000     0.000  0.5568  0.8274  0.0729
 
              Baa    -0.0000    -0.000    -0.000    -0.000  0.6675  0.7036 -0.2437
    25 H(1)   Bbb    -0.0000    -0.000    -0.000    -0.000 -0.5318  0.6795  0.5054
              Bcc     0.0000     0.000     0.000     0.000  0.5212 -0.2078  0.8278
 
              Baa    -0.0000    -0.000    -0.000    -0.000 -0.6743 -0.0187  0.7382
    26 C(13)  Bbb     0.0000     0.000     0.000     0.000  0.6550 -0.4767  0.5863
              Bcc     0.0000     0.000     0.000     0.000  0.3410  0.8789  0.3337
 
              Baa    -0.0000    -0.000    -0.000    -0.000 -0.5625  0.7912 -0.2398
    27 H(1)   Bbb     0.0000     0.000     0.000     0.000 -0.5929 -0.1839  0.7840
              Bcc     0.0000     0.000     0.000     0.000  0.5762  0.5832  0.5726
 
              Baa    -0.0000    -0.000    -0.000    -0.000  0.6293  0.6213  0.4669
    28 H(1)   Bbb     0.0000     0.000     0.000     0.000 -0.5973  0.0023  0.8020
              Bcc     0.0000     0.000     0.000     0.000 -0.4972  0.7836 -0.3725
 

 ---------------------------------------------------------------------------------

 No NMR shielding tensors so no spin-rotation constants.
 Leave Link  601 at Mon Aug  3 14:02:15 2020, MaxMem=  6442450944 cpu:              14.4 elap:               0.9
 (Enter /scratch/scicomp/CentOS/7.3.1611/Haswell/software/Gaussian/g16/l9999.exe)
 1\1\GINC-ATLAS-205\SP\UwB97XD\def2TZVP\C12H16\BOCHEN\03-Aug-2020\0\\#p
  uwb97xd guess=mix def2tzvp # scrf=(iefpcm,solvent=Cyclohexane,read) n
 osym 6d 10f\\endo-2 xp-pcm for eta=3\\0,1\C,0,-3.117905,-0.439074,0.28
 2722\C,0,-0.818524,-0.273593,-1.364901\H,0,-4.03333,-0.517117,0.857717
 \H,0,0.103373,-0.201366,-1.929344\C,0,1.228903,1.441011,0.876454\C,0,0
 .818524,0.273593,1.364901\H,0,0.64341,2.339945,1.029443\H,0,-0.103373,
 0.201366,1.929344\C,0,1.6454,-0.970035,1.20615\H,0,2.259726,-1.0838,2.
 109018\H,0,0.997461,-1.847095,1.165558\C,0,2.485196,1.535682,0.130802\
 H,0,2.886502,2.517404,-0.090679\C,0,3.117905,0.439074,-0.282722\H,0,4.
 03333,0.517117,-0.857717\C,0,2.546291,-0.929423,-0.030764\H,0,1.973763
 ,-1.230286,-0.916701\H,0,3.3478,-1.663372,0.07074\C,0,-1.228903,-1.441
 011,-0.876454\H,0,-0.64341,-2.339945,-1.029443\C,0,-2.485196,-1.535682
 ,-0.130802\H,0,-2.886502,-2.517404,0.090679\C,0,-1.6454,0.970035,-1.20
 615\H,0,-0.997461,1.847095,-1.165558\H,0,-2.259726,1.0838,-2.109018\C,
 0,-2.546291,0.929423,0.030764\H,0,-3.3478,1.663372,-0.07074\H,0,-1.973
 763,1.230286,0.916701\\Version=ES64L-G16RevB.01\HF=-466.8600184\S2=0.\
 S2-1=0.\S2A=0.\RMSD=9.665e-09\Dipole=-0.0000377,0.0000265,0.000009\Qua
 drupole=0.1458923,2.4195322,-2.5654245,-2.3841645,-3.0037063,-1.259659
 9\PG=CI [X(C12H16)]\\@


 ... A MOLECULAR SYSTEM ... (PASSES) ... FROM ONE STATE OF EQUILIBRIUM 
 TO ANOTHER ... BY MEANS OF ALL POSSIBLE INTERMEDIATE PATHS, 
 BUT THE PATH MOST ECONOMICAL OF ENERGY WILL BE THE MORE OFTEN TRAVELED.

                      -- HENRY EYRING, 1945
 Job cpu time:       0 days  2 hours  0 minutes 49.7 seconds.
 Elapsed time:       0 days  0 hours  5 minutes  5.9 seconds.
 File lengths (MBytes):  RWF=    647 Int=      0 D2E=      0 Chk=     24 Scr=      1
 Normal termination of Gaussian 16 at Mon Aug  3 14:02:15 2020.
