 Entering Gaussian System, Link 0=g16
 Input=meso-TS_10_1_xp-Ger.com
 Output=meso-TS_10_1_xp-Ger.log
 Initial command:
 /scratch/scicomp/CentOS/7.3.1611/Haswell/software/Gaussian/g16/l1.exe "/scratch/bochen/cyclohexadiene-dimerization/wb97xd-def2tzvp/xp-pcm/meso/Gau-450180.inp" -scrdir="/scratch/bochen/cyclohexadiene-dimerization/wb97xd-def2tzvp/xp-pcm/meso/"
 Entering Link 1 = /scratch/scicomp/CentOS/7.3.1611/Haswell/software/Gaussian/g16/l1.exe PID=    450181.
  
 Copyright (c) 1988-2017, Gaussian, Inc.  All Rights Reserved.
  
 This is part of the Gaussian(R) 16 program.  It is based on
 the Gaussian(R) 09 system (copyright 2009, Gaussian, Inc.),
 the Gaussian(R) 03 system (copyright 2003, Gaussian, Inc.),
 the Gaussian(R) 98 system (copyright 1998, Gaussian, Inc.),
 the Gaussian(R) 94 system (copyright 1995, Gaussian, Inc.),
 the Gaussian 92(TM) system (copyright 1992, Gaussian, Inc.),
 the Gaussian 90(TM) system (copyright 1990, Gaussian, Inc.),
 the Gaussian 88(TM) system (copyright 1988, Gaussian, Inc.),
 the Gaussian 86(TM) system (copyright 1986, Carnegie Mellon
 University), and the Gaussian 82(TM) system (copyright 1983,
 Carnegie Mellon University). Gaussian is a federally registered
 trademark of Gaussian, Inc.
  
 This software contains proprietary and confidential information,
 including trade secrets, belonging to Gaussian, Inc.
  
 This software is provided under written license and may be
 used, copied, transmitted, or stored only in accord with that
 written license.
  
 The following legend is applicable only to US Government
 contracts under FAR:
  
                    RESTRICTED RIGHTS LEGEND
  
 Use, reproduction and disclosure by the US Government is
 subject to restrictions as set forth in subparagraphs (a)
 and (c) of the Commercial Computer Software - Restricted
 Rights clause in FAR 52.227-19.
  
 Gaussian, Inc.
 340 Quinnipiac St., Bldg. 40, Wallingford CT 06492
  
  
 ---------------------------------------------------------------
 Warning -- This program may not be used in any manner that
 competes with the business of Gaussian, Inc. or will provide
 assistance to any competitor of Gaussian, Inc.  The licensee
 of this program is prohibited from giving any competitor of
 Gaussian, Inc. access to this program.  By using this program,
 the user acknowledges that Gaussian, Inc. is engaged in the
 business of creating and licensing software in the field of
 computational chemistry and represents and warrants to the
 licensee that it is not a competitor of Gaussian, Inc. and that
 it will not use this program in any manner prohibited above.
 ---------------------------------------------------------------
  

 Cite this work as:
 Gaussian 16, Revision B.01,
 M. J. Frisch, G. W. Trucks, H. B. Schlegel, G. E. Scuseria, 
 M. A. Robb, J. R. Cheeseman, G. Scalmani, V. Barone, 
 G. A. Petersson, H. Nakatsuji, X. Li, M. Caricato, A. V. Marenich, 
 J. Bloino, B. G. Janesko, R. Gomperts, B. Mennucci, H. P. Hratchian, 
 J. V. Ortiz, A. F. Izmaylov, J. L. Sonnenberg, D. Williams-Young, 
 F. Ding, F. Lipparini, F. Egidi, J. Goings, B. Peng, A. Petrone, 
 T. Henderson, D. Ranasinghe, V. G. Zakrzewski, J. Gao, N. Rega, 
 G. Zheng, W. Liang, M. Hada, M. Ehara, K. Toyota, R. Fukuda, 
 J. Hasegawa, M. Ishida, T. Nakajima, Y. Honda, O. Kitao, H. Nakai, 
 T. Vreven, K. Throssell, J. A. Montgomery, Jr., J. E. Peralta, 
 F. Ogliaro, M. J. Bearpark, J. J. Heyd, E. N. Brothers, K. N. Kudin, 
 V. N. Staroverov, T. A. Keith, R. Kobayashi, J. Normand, 
 K. Raghavachari, A. P. Rendell, J. C. Burant, S. S. Iyengar, 
 J. Tomasi, M. Cossi, J. M. Millam, M. Klene, C. Adamo, R. Cammi, 
 J. W. Ochterski, R. L. Martin, K. Morokuma, O. Farkas, 
 J. B. Foresman, and D. J. Fox, Gaussian, Inc., Wallingford CT, 2016.
 
 ******************************************
 Gaussian 16:  ES64L-G16RevB.01 20-Dec-2017
                 4-Aug-2020 
 ******************************************
 %chk=meso-TS_10_1_xp-12.chk
 %nproc=24
 Will use up to   24 processors via shared memory.
 %mem=48GB
 ----------------------------------------------------------------------
 #p uwb97xd guess=mix def2tzvp # scrf=(iefpcm,solvent=Cyclohexane,read)
  nosym 6d 10f
 ----------------------------------------------------------------------
 1/38=1,40=2,172=1/1;
 2/12=2,15=1,17=6,18=5,40=1/2;
 3/5=44,7=101,8=22,11=2,25=1,30=1,70=2203,72=17,74=-58,116=2/1,2,3;
 4/13=-1/1;
 5/5=2,38=5,53=17/2;
 6/7=2,8=2,9=2,10=2,28=1/1;
 99/5=1,9=1/99;
 Leave Link    1 at Tue Aug  4 17:01:46 2020, MaxMem=  6442450944 cpu:              10.8 elap:               0.5
 (Enter /scratch/scicomp/CentOS/7.3.1611/Haswell/software/Gaussian/g16/l101.exe)
 -----------------------
 endo-2 xp-pcm for eta=3
 -----------------------
 Symbolic Z-matrix:
 Charge =  0 Multiplicity = 1
 6                    -3.11973  -0.42693   0.24821 
 6                    -0.45263  -0.13438  -0.76652 
 1                    -4.08603  -0.54735   0.72263 
 1                     0.3327   -0.11178  -1.52177 
 6                     1.11517   1.43066   0.67263 
 6                     0.45263   0.13438   0.76652 
 1                     0.562     2.3317    0.90552 
 1                    -0.3327    0.11178   1.52177 
 6                     1.45722  -0.99872   0.98256 
 1                     1.88213  -0.90424   1.98647 
 1                     0.94466  -1.96124   0.94627 
 6                     2.39769   1.52836   0.12339 
 1                     2.82598   2.5125   -0.03105 
 6                     3.11973   0.42693  -0.24821 
 1                     4.08603   0.54735  -0.72263 
 6                     2.5928   -0.9593   -0.04255 
 1                     2.24621  -1.35883  -1.00479 
 1                     3.4016   -1.62455   0.27105 
 6                    -1.11517  -1.43066  -0.67263 
 1                    -0.562    -2.3317   -0.90552 
 6                    -2.39769  -1.52836  -0.12339 
 1                    -2.82598  -2.5125    0.03105 
 6                    -1.45722   0.99872  -0.98256 
 1                    -0.94466   1.96124  -0.94627 
 1                    -1.88213   0.90424  -1.98647 
 6                    -2.5928    0.9593    0.04255 
 1                    -3.4016    1.62455  -0.27105 
 1                    -2.24621   1.35883   1.00479 
 
 ITRead=  0  0  0  0  0  0  0  0  0  0  0  0  0  0  0  0  0  0  0  0
 ITRead=  0  0  0  0  0  0  0  0
 MicOpt= -1 -1 -1 -1 -1 -1 -1 -1 -1 -1 -1 -1 -1 -1 -1 -1 -1 -1 -1 -1
 MicOpt= -1 -1 -1 -1 -1 -1 -1 -1
 NAtoms=     28 NQM=       28 NQMF=       0 NMMI=      0 NMMIF=      0
                NMic=       0 NMicF=      0.
                    Isotopes and Nuclear Properties:
 (Nuclear quadrupole moments (NQMom) in fm**2, nuclear magnetic moments (NMagM)
  in nuclear magnetons)

  Atom         1           2           3           4           5           6           7           8           9          10
 IAtWgt=          12          12           1           1          12          12           1           1          12           1
 AtmWgt=  12.0000000  12.0000000   1.0078250   1.0078250  12.0000000  12.0000000   1.0078250   1.0078250  12.0000000   1.0078250
 NucSpn=           0           0           1           1           0           0           1           1           0           1
 AtZEff=  -0.0000000  -0.0000000  -0.0000000  -0.0000000  -0.0000000  -0.0000000  -0.0000000  -0.0000000  -0.0000000  -0.0000000
 NQMom=    0.0000000   0.0000000   0.0000000   0.0000000   0.0000000   0.0000000   0.0000000   0.0000000   0.0000000   0.0000000
 NMagM=    0.0000000   0.0000000   2.7928460   2.7928460   0.0000000   0.0000000   2.7928460   2.7928460   0.0000000   2.7928460
 AtZNuc=   6.0000000   6.0000000   1.0000000   1.0000000   6.0000000   6.0000000   1.0000000   1.0000000   6.0000000   1.0000000

  Atom        11          12          13          14          15          16          17          18          19          20
 IAtWgt=           1          12           1          12           1          12           1           1          12           1
 AtmWgt=   1.0078250  12.0000000   1.0078250  12.0000000   1.0078250  12.0000000   1.0078250   1.0078250  12.0000000   1.0078250
 NucSpn=           1           0           1           0           1           0           1           1           0           1
 AtZEff=  -0.0000000  -0.0000000  -0.0000000  -0.0000000  -0.0000000  -0.0000000  -0.0000000  -0.0000000  -0.0000000  -0.0000000
 NQMom=    0.0000000   0.0000000   0.0000000   0.0000000   0.0000000   0.0000000   0.0000000   0.0000000   0.0000000   0.0000000
 NMagM=    2.7928460   0.0000000   2.7928460   0.0000000   2.7928460   0.0000000   2.7928460   2.7928460   0.0000000   2.7928460
 AtZNuc=   1.0000000   6.0000000   1.0000000   6.0000000   1.0000000   6.0000000   1.0000000   1.0000000   6.0000000   1.0000000

  Atom        21          22          23          24          25          26          27          28
 IAtWgt=          12           1          12           1           1          12           1           1
 AtmWgt=  12.0000000   1.0078250  12.0000000   1.0078250   1.0078250  12.0000000   1.0078250   1.0078250
 NucSpn=           0           1           0           1           1           0           1           1
 AtZEff=  -0.0000000  -0.0000000  -0.0000000  -0.0000000  -0.0000000  -0.0000000  -0.0000000  -0.0000000
 NQMom=    0.0000000   0.0000000   0.0000000   0.0000000   0.0000000   0.0000000   0.0000000   0.0000000
 NMagM=    0.0000000   2.7928460   0.0000000   2.7928460   2.7928460   0.0000000   2.7928460   2.7928460
 AtZNuc=   6.0000000   1.0000000   6.0000000   1.0000000   1.0000000   6.0000000   1.0000000   1.0000000
 Leave Link  101 at Tue Aug  4 17:01:48 2020, MaxMem=  6442450944 cpu:              11.0 elap:               0.6
 (Enter /scratch/scicomp/CentOS/7.3.1611/Haswell/software/Gaussian/g16/l202.exe)
                          Input orientation:                          
 ---------------------------------------------------------------------
 Center     Atomic      Atomic             Coordinates (Angstroms)
 Number     Number       Type             X           Y           Z
 ---------------------------------------------------------------------
      1          6           0       -3.119734   -0.426930    0.248214
      2          6           0       -0.452630   -0.134377   -0.766522
      3          1           0       -4.086028   -0.547352    0.722629
      4          1           0        0.332703   -0.111776   -1.521768
      5          6           0        1.115166    1.430657    0.672626
      6          6           0        0.452630    0.134377    0.766522
      7          1           0        0.561998    2.331699    0.905522
      8          1           0       -0.332703    0.111776    1.521768
      9          6           0        1.457223   -0.998723    0.982555
     10          1           0        1.882127   -0.904241    1.986471
     11          1           0        0.944658   -1.961243    0.946268
     12          6           0        2.397689    1.528359    0.123394
     13          1           0        2.825979    2.512496   -0.031045
     14          6           0        3.119734    0.426930   -0.248214
     15          1           0        4.086028    0.547352   -0.722629
     16          6           0        2.592798   -0.959299   -0.042549
     17          1           0        2.246207   -1.358828   -1.004791
     18          1           0        3.401603   -1.624548    0.271052
     19          6           0       -1.115166   -1.430657   -0.672626
     20          1           0       -0.561998   -2.331699   -0.905522
     21          6           0       -2.397689   -1.528359   -0.123394
     22          1           0       -2.825979   -2.512496    0.031045
     23          6           0       -1.457223    0.998723   -0.982556
     24          1           0       -0.944658    1.961243   -0.946268
     25          1           0       -1.882127    0.904241   -1.986471
     26          6           0       -2.592798    0.959299    0.042549
     27          1           0       -3.401603    1.624548   -0.271052
     28          1           0       -2.246207    1.358828    1.004791
 ---------------------------------------------------------------------
                    Distance matrix (angstroms):
                    1          2          3          4          5
     1  C    0.000000
     2  C    2.868575   0.000000
     3  H    1.083187   3.948379   0.000000
     4  H    3.892490   1.089796   4.975161   0.000000
     5  C    4.643827   2.641678   5.564840   2.794050   0.000000
     6  C    3.653148   1.800541   4.589782   2.304614   1.458805
     7  H    4.647283   3.147496   5.470515   3.451794   1.082641
     8  H    3.111219   2.304614   3.893651   3.123436   2.134669
     9  C    4.670625   2.730184   5.567668   2.884936   2.472842
    10  H    5.316764   3.690901   6.110936   3.916179   2.786784
    11  H    4.400077   2.867665   5.230383   3.144236   3.407189
    12  C    5.854972   3.417742   6.834197   3.108178   1.398595
    13  H    6.638502   4.277399   7.596482   3.914778   2.142991
    14  C    6.317157   3.653148   7.335855   3.111219   2.423573
    15  H    7.335855   4.589782   8.370761   3.893651   3.398968
    16  C    5.744648   3.237169   6.735125   2.830974   2.899442
    17  H    5.588540   2.973176   6.613598   2.341773   3.445897
    18  H    6.630433   4.260549   7.578185   3.862749   3.837100
    19  C    2.423573   1.458805   3.398968   2.134669   3.869264
    20  H    3.391352   2.204429   4.272418   2.471499   4.411208
    21  C    1.368425   2.477913   2.128055   3.378934   4.661499
    22  H    2.117319   3.453165   2.434708   4.260511   5.611836
    23  C    2.512215   1.529638   3.494084   2.174349   3.089236
    24  H    3.443997   2.160098   4.352754   2.502051   2.673053
    25  H    2.880539   2.147199   3.782000   2.480668   4.041247
    26  C    1.497194   2.535950   2.227609   3.486093   3.790537
    27  H    2.134865   3.469258   2.484550   4.303969   4.618368
    28  H    2.127061   2.929868   2.664222   3.898327   3.378509
                    6          7          8          9         10
     6  C    0.000000
     7  H    2.204429   0.000000
     8  H    1.089796   2.471499   0.000000
     9  C    1.529638   3.449503   2.174349   0.000000
    10  H    2.147199   3.658210   2.480668   1.094220   0.000000
    11  H    2.160098   4.310155   2.502051   1.091093   1.754458
    12  C    2.477913   2.151009   3.378934   2.829978   3.107153
    13  H    3.453165   2.456716   4.260511   3.902504   4.078642
    14  C    2.868575   3.391352   3.892490   2.512214   2.880539
    15  H    3.948379   4.272418   4.975161   3.494083   3.782000
    16  C    2.535950   3.981665   3.486093   1.530334   2.150583
    17  H    2.929868   4.483954   3.898327   2.168344   3.047434
    18  H    3.469258   4.910988   4.303969   2.162986   2.402147
    19  C    2.641678   4.411208   2.794050   3.089236   4.041247
    20  H    3.147496   5.127429   3.451794   3.069025   4.046604
    21  C    3.417742   4.971767   3.108178   4.045242   4.812263
    22  H    4.277399   5.975728   3.914778   4.641411   5.345693
    23  C    2.730184   3.069025   2.884937   4.042950   4.856712
    24  H    2.867665   2.415859   3.144236   4.272094   4.980228
    25  H    3.690901   4.046604   3.916179   4.856711   5.764068
    26  C    3.237169   3.546962   2.830974   4.595664   5.222697
    27  H    4.260549   4.194582   3.862749   5.662267   6.277658
    28  H    2.973176   2.973609   2.341773   4.390209   4.809191
                   11         12         13         14         15
    11  H    0.000000
    12  C    3.868558   0.000000
    13  H    4.950641   1.084347   0.000000
    14  C    3.443997   1.368425   2.117319   0.000000
    15  H    4.352754   2.128055   2.434708   1.083187   0.000000
    16  C    2.167491   2.500809   3.479636   1.497194   2.227609
    17  H    2.421480   3.103481   4.033791   2.127061   2.664222
    18  H    2.570187   3.312170   4.187808   2.134865   2.484550
    19  C    2.673053   4.661499   5.611836   4.643827   5.564840
    20  H    2.415859   4.971767   5.975728   4.647283   5.470515
    21  C    3.535937   5.692107   6.604827   5.854972   6.834197
    22  H    3.919084   6.604827   7.563004   6.638502   7.596482
    23  C    4.272095   4.045242   4.641412   4.670625   5.567668
    24  H    4.747326   3.535937   3.919084   4.400077   5.230383
    25  H    4.980228   4.812263   5.345693   5.316764   6.110936
    26  C    4.675454   5.023477   5.637462   5.744648   6.735125
    27  H    5.764525   5.813487   6.295144   6.630433   7.578185
    28  H    4.605205   4.729838   5.303864   5.588540   6.613598
                   16         17         18         19         20
    16  C    0.000000
    17  H    1.098025   0.000000
    18  H    1.093191   1.741644   0.000000
    19  C    3.790537   3.378509   4.618368   0.000000
    20  H    3.546962   2.973609   4.194582   1.082641   0.000000
    21  C    5.023477   4.729838   5.813487   1.398595   2.151009
    22  H    5.637462   5.303864   6.295144   2.142991   2.456716
    23  C    4.595665   4.390209   5.662268   2.472842   3.449503
    24  H    4.675454   4.605205   5.764525   3.407189   4.310155
    25  H    5.222697   4.809191   6.277658   2.786784   3.658210
    26  C    5.529798   5.466864   6.531564   2.899442   3.981665
    27  H    6.531564   6.429359   7.558711   3.837100   4.910988
    28  H    5.466864   5.621909   6.429359   3.445897   4.483954
                   21         22         23         24         25
    21  C    0.000000
    22  H    1.084347   0.000000
    23  C    2.829979   3.902504   0.000000
    24  H    3.868558   4.950641   1.091093   0.000000
    25  H    3.107153   4.078642   1.094219   1.754458   0.000000
    26  C    2.500809   3.479636   1.530335   2.167491   2.150583
    27  H    3.312170   4.187808   2.162986   2.570187   2.402147
    28  H    3.103481   4.033791   2.168345   2.421480   3.047434
                   26         27         28
    26  C    0.000000
    27  H    1.093191   0.000000
    28  H    1.098025   1.741644   0.000000
 Symmetry turned off by external request.
 Stoichiometry    C12H16
 Framework group  CI[X(C12H16)]
 Deg. of freedom    39
 Full point group                 CI      NOp   2
 Rotational constants (GHZ):           1.9639847           0.6410689           0.5529977
 Leave Link  202 at Tue Aug  4 17:01:48 2020, MaxMem=  6442450944 cpu:               0.3 elap:               0.1
 (Enter /scratch/scicomp/CentOS/7.3.1611/Haswell/software/Gaussian/g16/l301.exe)
 Standard basis: def2TZVP (6D, 10F)
 Ernie: Thresh=  0.10000D-02 Tol=  0.10000D-05 Strict=F.
   528 basis functions,   740 primitive gaussians,   528 cartesian basis functions
    44 alpha electrons       44 beta electrons
       nuclear repulsion energy       692.7544140269 Hartrees.
 IExCor= 4639 DFT=T Ex+Corr=wB97XD ExCW=0 ScaHFX=  1.000000
 ScaDFX=  1.000000  1.000000  1.000000  1.000000 ScalE2=  1.000000  1.000000
 IRadAn=      5 IRanWt=     -1 IRanGd=            0 ICorTp=0 IEmpDi=121
 HFx  wShort=  0.000000 wLong=  0.200000 cFull=  0.222036 cShort=  0.000000 cLong=  0.777964
 DFx  wShort=  0.000000 wLong=  0.200000 cFull=  0.000000 cShort=  0.000000 cLong=  1.000000
 NAtoms=   28 NActive=   28 NUniq=   28 SFac= 1.00D+00 NAtFMM=   60 NAOKFM=F Big=F
 Integral buffers will be    131072 words long.
 Raffenetti 2 integral format.
 Two-electron integral symmetry is turned off.
 R6Disp:  Grimme-D2 Dispersion energy=       -0.0228701961 Hartrees.
 Nuclear repulsion after empirical dispersion term =      692.7315438308 Hartrees.
 Using the following non-standard input for PCM:
 qrep pcmdoc geomview  nodis nocav g03defaults tsare=0.075
 Warning! Using old PCM defaults because the g03defaults keyword was found.
 These settings can be overridden by following keywords.
 nsfe=28
 NVESolv=36  SolvMW=84.1595   Rsolv=2.815
 eps=2.0165 RhoS=0.778099999999998
 --- end of non-standard input.
 Reading user-defined spheres from input:
 ISph  on   Nord    Re0     Alpha      Xe            Ye            Ze
 --- end of user-defined spheres data.
 ------------------------------------------------------------------------------
 Polarizable Continuum Model (PCM)
 =================================
 Model                : PCM.
 Atomic radii         : UA0 (Simple United Atom Topological Model).
 Polarization charges : Total charges.
 Charge compensation  : None.
 Solution method      : On-the-fly selection.
 Cavity type          : SES (Solvent Excluding Surface) (Alpha=1.000).
 Cavity algorithm     : GePol (RMin=0.200 OFac=0.890).
                        User-defined sphere list used, NSphG=   28.
                        Tesserae with average area of 0.075 Ang**2.
                        Smoothing algorithm: None.
                        Polarization charges: point-like.
                        Self-potential: constant (ISelfS= 1).
                        Self-field    : global E.n sum rule (ISelfD= 3).
 Solvent              : CycloHexane, Eps=   2.016500 Eps(inf)=   2.035188
                        RSolv=   2.815000 Ang.
 ------------------------------------------------------------------------------
 GePol: Number of generator spheres                  =      28
 GePol: Total number of spheres                      =     178
 GePol: Number of exposed spheres                    =     130 ( 73.03%)
 GePol: Number of tesserae                           =    4689
 GePol: Average area of tesserae                     =       0.05 Ang**2
 GePol: Minimum area of tessera                      =   0.10D-02 Ang**2
 GePol: Maximum area of tessera                      =    0.12570 Ang**2
 GePol: Number of small tesserae                     =       0
 GePol: Fraction of small tesserae (<1% of avg)      =       0.00%
 GePol: Total count of vertices                      =   16605
 GePol: Maximum number of vertices in a tessera      =       7
 GePol: Cavity surface area                          =    218.816 Ang**2
 GePol: Cavity volume                                =    246.174 Ang**3
 Leave Link  301 at Tue Aug  4 17:01:49 2020, MaxMem=  6442450944 cpu:              19.0 elap:               0.9
 (Enter /scratch/scicomp/CentOS/7.3.1611/Haswell/software/Gaussian/g16/l302.exe)
 NPDir=0 NMtPBC=     1 NCelOv=     1 NCel=       1 NClECP=     1 NCelD=      1
         NCelK=      1 NCelE2=     1 NClLst=     1 CellRange=     0.0.
 One-electron integrals computed using PRISM.
   1 Symmetry operations used in ECPInt.
 ECPInt:  NShTT=   19306 NPrTT=   56928 LenC2=   18534 LenP2D=   42286.
 LDataN:  DoStor=T MaxTD1= 6 Len=  172
 NBasis=   528 RedAO= T EigKep=  2.66D-05  NBF=   528
 NBsUse=   528 1.00D-06 EigRej= -1.00D+00 NBFU=   528
 Precomputing XC quadrature grid using
 IXCGrd= 4 IRadAn=           5 IRanWt=          -1 IRanGd=           0 AccXCQ= 0.00D+00.
 Generated NRdTot=       0 NPtTot=           0 NUsed=           0 NTot=          32
 NSgBfM=   526   526   526   526   526 MxSgAt=    28 MxSgA2=    28.
 Leave Link  302 at Tue Aug  4 17:01:50 2020, MaxMem=  6442450944 cpu:              13.1 elap:               0.6
 (Enter /scratch/scicomp/CentOS/7.3.1611/Haswell/software/Gaussian/g16/l303.exe)
 DipDrv:  MaxL=1.
 Leave Link  303 at Tue Aug  4 17:01:50 2020, MaxMem=  6442450944 cpu:               1.6 elap:               0.1
 (Enter /scratch/scicomp/CentOS/7.3.1611/Haswell/software/Gaussian/g16/l401.exe)
 ExpMin= 9.52D-02 ExpMax= 1.36D+04 ExpMxC= 4.63D+02 IAcc=3 IRadAn=         5 AccDes= 0.00D+00
 Harris functional with IExCor= 4639 and IRadAn=       5 diagonalized for initial guess.
 HarFok:  IExCor= 4639 AccDes= 0.00D+00 IRadAn=         5 IDoV= 1 UseB2=F ITyADJ=14
 ICtDFT=  3500011 ScaDFX=  1.000000  1.000000  1.000000  1.000000
 FoFCou: FMM=F IPFlag=           0 FMFlag=      100000 FMFlg1=           0
         NFxFlg=           0 DoJE=T BraDBF=F KetDBF=T FulRan=T
         wScrn=  0.000000 ICntrl=       500 IOpCl=  0 I1Cent=   200000004 NGrid=           0
         NMat0=    1 NMatS0=      1 NMatT0=    0 NMatD0=    1 NMtDS0=    0 NMtDT0=    0
 Symmetry not used in FoFCou.
 Harris En= -444.612840181976    
 JPrj=0 DoOrth=F DoCkMO=T.
 Mixing orbitals, IMix= 1 IMixAn=  0 NRI=1 NE=   44 Coef=  7.07106781D-01  7.07106781D-01
 Mixing orbitals, IMix= 1 IMixAn=  0 NRI=1 NE=   44 Coef= -7.07106781D-01  7.07106781D-01
 Initial guess <Sx>= 0.0000 <Sy>= 0.0000 <Sz>= 0.0000 <S**2>= 1.0000 S= 0.6180
 Leave Link  401 at Tue Aug  4 17:01:52 2020, MaxMem=  6442450944 cpu:              49.7 elap:               2.1
 (Enter /scratch/scicomp/CentOS/7.3.1611/Haswell/software/Gaussian/g16/l502.exe)
 Two-electron integral symmetry not used.
 UHF open shell SCF:
 Using DIIS extrapolation, IDIIS=  1040.
 NGot=  6442450944 LenX=  6441877030 LenY=  6441597718
 Requested convergence on RMS density matrix=1.00D-08 within 128 cycles.
 Requested convergence on MAX density matrix=1.00D-06.
 Requested convergence on             energy=1.00D-06.
 No special actions if energy rises.
 Fock matrices will be formed incrementally for  20 cycles.

 Cycle   1  Pass 1  IDiag  1:
 FoFJK:  IHMeth= 1 ICntrl=       0 DoSepK=T KAlg= 0 I1Cent=           0 FoldK=F
 IRaf=         1 NMat=       1 IRICut=       1 DoRegI=T DoRafI=F ISym2E= 0 IDoP0=0 IntGTp=1.
 FoFCou: FMM=F IPFlag=           0 FMFlag=      100000 FMFlg1=           0
         NFxFlg=           0 DoJE=T BraDBF=F KetDBF=F FulRan=T
         wScrn=  0.000000 ICntrl=       500 IOpCl=  0 I1Cent=           0 NGrid=           0
         NMat0=    1 NMatS0=      1 NMatT0=    0 NMatD0=    1 NMtDS0=    0 NMtDT0=    0
 Symmetry not used in FoFCou.
 Inv3:  Mode=1 IEnd=    65960163.
 Iteration    1 A*A^-1 deviation from unit magnitude is 3.44D-15 for   1130.
 Iteration    1 A*A^-1 deviation from orthogonality  is 1.93D-15 for    127    114.
 Iteration    1 A^-1*A deviation from unit magnitude is 3.66D-15 for   1478.
 Iteration    1 A^-1*A deviation from orthogonality  is 2.38D-15 for   1801   1784.
 E= -466.668000117403    
 DIIS: error= 4.76D-02 at cycle   1 NSaved=   1.
 NSaved= 1 IEnMin= 1 EnMin= -466.668000117403     IErMin= 1 ErrMin= 4.76D-02
 ErrMax= 4.76D-02  0.00D+00 EMaxC= 1.00D-01 BMatC= 4.11D+00 BMatP= 4.11D+00
 IDIUse=3 WtCom= 5.24D-01 WtEn= 4.76D-01
 Coeff-Com:  0.100D+01
 Coeff-En:   0.100D+01
 Coeff:      0.100D+01
 Gap=     0.226 Goal=   None    Shift=    0.000
 Gap=     0.226 Goal=   None    Shift=    0.000
 GapD=    0.226 DampG=1.000 DampE=0.500 DampFc=0.5000 IDamp=-1.
 Damping current iteration by 5.00D-01
 RMSDP=1.44D-03 MaxDP=9.25D-02              OVMax= 8.57D-02

 Cycle   2  Pass 1  IDiag  1:
 RMSU=  7.02D-04    CP:  9.76D-01
 E= -466.739694878871     Delta-E=       -0.071694761468 Rises=F Damp=T
 DIIS: error= 2.25D-02 at cycle   2 NSaved=   2.
 NSaved= 2 IEnMin= 2 EnMin= -466.739694878871     IErMin= 2 ErrMin= 2.25D-02
 ErrMax= 2.25D-02  0.00D+00 EMaxC= 1.00D-01 BMatC= 9.20D-01 BMatP= 4.11D+00
 IDIUse=3 WtCom= 7.75D-01 WtEn= 2.25D-01
 Coeff-Com: -0.863D+00 0.186D+01
 Coeff-En:   0.000D+00 0.100D+01
 Coeff:     -0.669D+00 0.167D+01
 Gap=     0.237 Goal=   None    Shift=    0.000
 Gap=     0.237 Goal=   None    Shift=    0.000
 RMSDP=8.91D-04 MaxDP=4.88D-02 DE=-7.17D-02 OVMax= 3.69D-02

 Cycle   3  Pass 1  IDiag  1:
 RMSU=  4.24D-04    CP:  9.47D-01  2.09D+00
 E= -466.810193459596     Delta-E=       -0.070498580725 Rises=F Damp=F
 DIIS: error= 2.63D-03 at cycle   3 NSaved=   3.
 NSaved= 3 IEnMin= 3 EnMin= -466.810193459596     IErMin= 3 ErrMin= 2.63D-03
 ErrMax= 2.63D-03  0.00D+00 EMaxC= 1.00D-01 BMatC= 1.95D-02 BMatP= 9.20D-01
 IDIUse=3 WtCom= 9.74D-01 WtEn= 2.63D-02
 Coeff-Com: -0.325D+00 0.700D+00 0.625D+00
 Coeff-En:   0.000D+00 0.000D+00 0.100D+01
 Coeff:     -0.317D+00 0.682D+00 0.635D+00
 Gap=     0.241 Goal=   None    Shift=    0.000
 Gap=     0.241 Goal=   None    Shift=    0.000
 RMSDP=1.14D-04 MaxDP=4.83D-03 DE=-7.05D-02 OVMax= 1.29D-02

 Cycle   4  Pass 1  IDiag  1:
 RMSU=  9.29D-05    CP:  9.44D-01  2.15D+00  9.01D-01
 E= -466.815234902590     Delta-E=       -0.005041442994 Rises=F Damp=F
 DIIS: error= 9.46D-04 at cycle   4 NSaved=   4.
 NSaved= 4 IEnMin= 4 EnMin= -466.815234902590     IErMin= 4 ErrMin= 9.46D-04
 ErrMax= 9.46D-04  0.00D+00 EMaxC= 1.00D-01 BMatC= 5.46D-04 BMatP= 1.95D-02
 IDIUse=3 WtCom= 9.91D-01 WtEn= 9.46D-03
 Coeff-Com:  0.121D+00-0.259D+00-0.135D+00 0.127D+01
 Coeff-En:   0.000D+00 0.000D+00 0.000D+00 0.100D+01
 Coeff:      0.120D+00-0.257D+00-0.134D+00 0.127D+01
 Gap=     0.245 Goal=   None    Shift=    0.000
 Gap=     0.245 Goal=   None    Shift=    0.000
 RMSDP=8.46D-05 MaxDP=4.62D-03 DE=-5.04D-03 OVMax= 1.43D-02

 Cycle   5  Pass 1  IDiag  1:
 RMSU=  3.52D-05    CP:  9.43D-01  2.20D+00  1.03D+00  1.48D+00
 E= -466.815912581464     Delta-E=       -0.000677678874 Rises=F Damp=F
 DIIS: error= 4.34D-04 at cycle   5 NSaved=   5.
 NSaved= 5 IEnMin= 5 EnMin= -466.815912581464     IErMin= 5 ErrMin= 4.34D-04
 ErrMax= 4.34D-04  0.00D+00 EMaxC= 1.00D-01 BMatC= 1.11D-04 BMatP= 5.46D-04
 IDIUse=3 WtCom= 9.96D-01 WtEn= 4.34D-03
 Coeff-Com:  0.329D-01-0.712D-01-0.640D-01-0.195D-01 0.112D+01
 Coeff-En:   0.000D+00 0.000D+00 0.000D+00 0.000D+00 0.100D+01
 Coeff:      0.327D-01-0.709D-01-0.637D-01-0.195D-01 0.112D+01
 Gap=     0.247 Goal=   None    Shift=    0.000
 Gap=     0.247 Goal=   None    Shift=    0.000
 RMSDP=3.20D-05 MaxDP=1.95D-03 DE=-6.78D-04 OVMax= 6.03D-03

 Cycle   6  Pass 1  IDiag  1:
 RMSU=  1.28D-05    CP:  9.42D-01  2.20D+00  1.06D+00  1.67D+00  1.56D+00
 E= -466.816048364625     Delta-E=       -0.000135783161 Rises=F Damp=F
 DIIS: error= 1.85D-04 at cycle   6 NSaved=   6.
 NSaved= 6 IEnMin= 6 EnMin= -466.816048364625     IErMin= 6 ErrMin= 1.85D-04
 ErrMax= 1.85D-04  0.00D+00 EMaxC= 1.00D-01 BMatC= 3.80D-05 BMatP= 1.11D-04
 IDIUse=3 WtCom= 9.98D-01 WtEn= 1.85D-03
 Coeff-Com: -0.237D-01 0.509D-01 0.161D-01-0.389D+00 0.408D+00 0.937D+00
 Coeff-En:   0.000D+00 0.000D+00 0.000D+00 0.000D+00 0.000D+00 0.100D+01
 Coeff:     -0.236D-01 0.508D-01 0.161D-01-0.388D+00 0.407D+00 0.937D+00
 Gap=     0.248 Goal=   None    Shift=    0.000
 Gap=     0.248 Goal=   None    Shift=    0.000
 RMSDP=1.61D-05 MaxDP=1.06D-03 DE=-1.36D-04 OVMax= 3.93D-03

 Cycle   7  Pass 1  IDiag  1:
 RMSU=  6.77D-06    CP:  9.42D-01  2.20D+00  1.06D+00  1.74D+00  1.90D+00
                    CP:  1.40D+00
 E= -466.816082917323     Delta-E=       -0.000034552698 Rises=F Damp=F
 DIIS: error= 6.18D-05 at cycle   7 NSaved=   7.
 NSaved= 7 IEnMin= 7 EnMin= -466.816082917323     IErMin= 7 ErrMin= 6.18D-05
 ErrMax= 6.18D-05  0.00D+00 EMaxC= 1.00D-01 BMatC= 3.12D-06 BMatP= 3.80D-05
 IDIUse=1 WtCom= 1.00D+00 WtEn= 0.00D+00
 Coeff-Com: -0.827D-02 0.179D-01 0.108D-01-0.591D-01-0.801D-01 0.142D+00
 Coeff-Com:  0.977D+00
 Coeff:     -0.827D-02 0.179D-01 0.108D-01-0.591D-01-0.801D-01 0.142D+00
 Coeff:      0.977D+00
 Gap=     0.248 Goal=   None    Shift=    0.000
 Gap=     0.248 Goal=   None    Shift=    0.000
 RMSDP=5.60D-06 MaxDP=3.85D-04 DE=-3.46D-05 OVMax= 1.30D-03

 Cycle   8  Pass 1  IDiag  1:
 RMSU=  2.54D-06    CP:  9.42D-01  2.20D+00  1.06D+00  1.73D+00  1.97D+00
                    CP:  1.64D+00  1.31D+00
 E= -466.816086209659     Delta-E=       -0.000003292336 Rises=F Damp=F
 DIIS: error= 3.59D-05 at cycle   8 NSaved=   8.
 NSaved= 8 IEnMin= 8 EnMin= -466.816086209659     IErMin= 8 ErrMin= 3.59D-05
 ErrMax= 3.59D-05  0.00D+00 EMaxC= 1.00D-01 BMatC= 5.79D-07 BMatP= 3.12D-06
 IDIUse=1 WtCom= 1.00D+00 WtEn= 0.00D+00
 Coeff-Com:  0.156D-02-0.334D-02 0.154D-03 0.437D-01-0.818D-01-0.109D+00
 Coeff-Com:  0.241D+00 0.908D+00
 Coeff:      0.156D-02-0.334D-02 0.154D-03 0.437D-01-0.818D-01-0.109D+00
 Coeff:      0.241D+00 0.908D+00
 Gap=     0.248 Goal=   None    Shift=    0.000
 Gap=     0.248 Goal=   None    Shift=    0.000
 RMSDP=2.42D-06 MaxDP=1.52D-04 DE=-3.29D-06 OVMax= 5.41D-04

 Cycle   9  Pass 1  IDiag  1:
 RMSU=  1.08D-06    CP:  9.42D-01  2.20D+00  1.06D+00  1.73D+00  1.97D+00
                    CP:  1.71D+00  1.51D+00  1.37D+00
 E= -466.816086746872     Delta-E=       -0.000000537213 Rises=F Damp=F
 DIIS: error= 1.57D-05 at cycle   9 NSaved=   9.
 NSaved= 9 IEnMin= 9 EnMin= -466.816086746872     IErMin= 9 ErrMin= 1.57D-05
 ErrMax= 1.57D-05  0.00D+00 EMaxC= 1.00D-01 BMatC= 1.04D-07 BMatP= 5.79D-07
 IDIUse=1 WtCom= 1.00D+00 WtEn= 0.00D+00
 Coeff-Com:  0.176D-02-0.380D-02-0.169D-02 0.212D-01-0.103D-01-0.527D-01
 Coeff-Com: -0.812D-01 0.262D+00 0.865D+00
 Coeff:      0.176D-02-0.380D-02-0.169D-02 0.212D-01-0.103D-01-0.527D-01
 Coeff:     -0.812D-01 0.262D+00 0.865D+00
 Gap=     0.248 Goal=   None    Shift=    0.000
 Gap=     0.248 Goal=   None    Shift=    0.000
 RMSDP=9.86D-07 MaxDP=5.07D-05 DE=-5.37D-07 OVMax= 2.20D-04

 Cycle  10  Pass 1  IDiag  1:
 RMSU=  3.42D-07    CP:  9.42D-01  2.20D+00  1.06D+00  1.72D+00  1.97D+00
                    CP:  1.72D+00  1.57D+00  1.62D+00  1.31D+00
 E= -466.816086836435     Delta-E=       -0.000000089562 Rises=F Damp=F
 DIIS: error= 5.15D-06 at cycle  10 NSaved=  10.
 NSaved=10 IEnMin=10 EnMin= -466.816086836435     IErMin=10 ErrMin= 5.15D-06
 ErrMax= 5.15D-06  0.00D+00 EMaxC= 1.00D-01 BMatC= 1.48D-08 BMatP= 1.04D-07
 IDIUse=1 WtCom= 1.00D+00 WtEn= 0.00D+00
 Coeff-Com: -0.459D-03 0.991D-03 0.127D-03-0.103D-01 0.160D-01 0.251D-01
 Coeff-Com: -0.325D-01-0.191D+00-0.594D-01 0.125D+01
 Coeff:     -0.459D-03 0.991D-03 0.127D-03-0.103D-01 0.160D-01 0.251D-01
 Coeff:     -0.325D-01-0.191D+00-0.594D-01 0.125D+01
 Gap=     0.248 Goal=   None    Shift=    0.000
 Gap=     0.248 Goal=   None    Shift=    0.000
 RMSDP=5.96D-07 MaxDP=3.94D-05 DE=-8.96D-08 OVMax= 1.26D-04

 Cycle  11  Pass 1  IDiag  1:
 RMSU=  1.90D-07    CP:  9.42D-01  2.20D+00  1.06D+00  1.72D+00  1.96D+00
                    CP:  1.72D+00  1.59D+00  1.73D+00  1.62D+00  1.54D+00
 E= -466.816086855397     Delta-E=       -0.000000018962 Rises=F Damp=F
 DIIS: error= 1.34D-06 at cycle  11 NSaved=  11.
 NSaved=11 IEnMin=11 EnMin= -466.816086855397     IErMin=11 ErrMin= 1.34D-06
 ErrMax= 1.34D-06  0.00D+00 EMaxC= 1.00D-01 BMatC= 3.27D-09 BMatP= 1.48D-08
 IDIUse=1 WtCom= 1.00D+00 WtEn= 0.00D+00
 Coeff-Com: -0.390D-03 0.843D-03 0.268D-03-0.633D-02 0.670D-02 0.156D-01
 Coeff-Com:  0.110D-02-0.994D-01-0.133D+00 0.414D+00 0.801D+00
 Coeff:     -0.390D-03 0.843D-03 0.268D-03-0.633D-02 0.670D-02 0.156D-01
 Coeff:      0.110D-02-0.994D-01-0.133D+00 0.414D+00 0.801D+00
 Gap=     0.248 Goal=   None    Shift=    0.000
 Gap=     0.248 Goal=   None    Shift=    0.000
 RMSDP=1.37D-07 MaxDP=7.09D-06 DE=-1.90D-08 OVMax= 2.38D-05

 Cycle  12  Pass 1  IDiag  1:
 RMSU=  6.29D-08    CP:  9.42D-01  2.20D+00  1.06D+00  1.72D+00  1.96D+00
                    CP:  1.72D+00  1.59D+00  1.75D+00  1.68D+00  1.72D+00
                    CP:  1.31D+00
 E= -466.816086857731     Delta-E=       -0.000000002334 Rises=F Damp=F
 DIIS: error= 7.81D-07 at cycle  12 NSaved=  12.
 NSaved=12 IEnMin=12 EnMin= -466.816086857731     IErMin=12 ErrMin= 7.81D-07
 ErrMax= 7.81D-07  0.00D+00 EMaxC= 1.00D-01 BMatC= 5.90D-10 BMatP= 3.27D-09
 IDIUse=1 WtCom= 1.00D+00 WtEn= 0.00D+00
 Coeff-Com:  0.572D-04-0.124D-03 0.418D-05 0.156D-02-0.270D-02-0.370D-02
 Coeff-Com:  0.712D-02 0.302D-01 0.112D-02-0.234D+00 0.110D+00 0.109D+01
 Coeff:      0.572D-04-0.124D-03 0.418D-05 0.156D-02-0.270D-02-0.370D-02
 Coeff:      0.712D-02 0.302D-01 0.112D-02-0.234D+00 0.110D+00 0.109D+01
 Gap=     0.248 Goal=   None    Shift=    0.000
 Gap=     0.248 Goal=   None    Shift=    0.000
 RMSDP=8.36D-08 MaxDP=3.53D-06 DE=-2.33D-09 OVMax= 1.57D-05

 Cycle  13  Pass 1  IDiag  1:
 RMSU=  3.77D-08    CP:  9.42D-01  2.20D+00  1.06D+00  1.72D+00  1.96D+00
                    CP:  1.72D+00  1.59D+00  1.74D+00  1.69D+00  1.80D+00
                    CP:  1.62D+00  1.37D+00
 E= -466.816086858434     Delta-E=       -0.000000000703 Rises=F Damp=F
 DIIS: error= 4.38D-07 at cycle  13 NSaved=  13.
 NSaved=13 IEnMin=13 EnMin= -466.816086858434     IErMin=13 ErrMin= 4.38D-07
 ErrMax= 4.38D-07  0.00D+00 EMaxC= 1.00D-01 BMatC= 1.23D-10 BMatP= 5.90D-10
 IDIUse=1 WtCom= 1.00D+00 WtEn= 0.00D+00
 Coeff-Com:  0.790D-04-0.171D-03-0.410D-04 0.145D-02-0.178D-02-0.348D-02
 Coeff-Com:  0.173D-02 0.236D-01 0.227D-01-0.130D+00-0.104D+00 0.260D+00
 Coeff-Com:  0.930D+00
 Coeff:      0.790D-04-0.171D-03-0.410D-04 0.145D-02-0.178D-02-0.348D-02
 Coeff:      0.173D-02 0.236D-01 0.227D-01-0.130D+00-0.104D+00 0.260D+00
 Coeff:      0.930D+00
 Gap=     0.248 Goal=   None    Shift=    0.000
 Gap=     0.248 Goal=   None    Shift=    0.000
 RMSDP=3.45D-08 MaxDP=1.40D-06 DE=-7.03D-10 OVMax= 8.05D-06

 Cycle  14  Pass 1  IDiag  1:
 RMSU=  1.73D-08    CP:  9.42D-01  2.20D+00  1.06D+00  1.72D+00  1.96D+00
                    CP:  1.72D+00  1.59D+00  1.74D+00  1.69D+00  1.81D+00
                    CP:  1.71D+00  1.58D+00  1.34D+00
 E= -466.816086858599     Delta-E=       -0.000000000165 Rises=F Damp=F
 DIIS: error= 2.93D-07 at cycle  14 NSaved=  14.
 NSaved=14 IEnMin=14 EnMin= -466.816086858599     IErMin=14 ErrMin= 2.93D-07
 ErrMax= 2.93D-07  0.00D+00 EMaxC= 1.00D-01 BMatC= 3.60D-11 BMatP= 1.23D-10
 IDIUse=1 WtCom= 1.00D+00 WtEn= 0.00D+00
 Coeff-Com: -0.348D-05 0.773D-05-0.290D-05-0.149D-03 0.394D-03 0.334D-03
 Coeff-Com: -0.162D-02-0.385D-02 0.386D-02 0.337D-01-0.399D-01-0.217D+00
 Coeff-Com:  0.173D+00 0.105D+01
 Coeff:     -0.348D-05 0.773D-05-0.290D-05-0.149D-03 0.394D-03 0.334D-03
 Coeff:     -0.162D-02-0.385D-02 0.386D-02 0.337D-01-0.399D-01-0.217D+00
 Coeff:      0.173D+00 0.105D+01
 Gap=     0.248 Goal=   None    Shift=    0.000
 Gap=     0.248 Goal=   None    Shift=    0.000
 RMSDP=2.17D-08 MaxDP=1.03D-06 DE=-1.65D-10 OVMax= 7.03D-06

 Cycle  15  Pass 1  IDiag  1:
 RMSU=  8.63D-09    CP:  9.42D-01  2.20D+00  1.06D+00  1.72D+00  1.96D+00
                    CP:  1.72D+00  1.59D+00  1.74D+00  1.69D+00  1.80D+00
                    CP:  1.73D+00  1.65D+00  1.72D+00  1.55D+00
 E= -466.816086858669     Delta-E=       -0.000000000070 Rises=F Damp=F
 DIIS: error= 1.66D-07 at cycle  15 NSaved=  15.
 NSaved=15 IEnMin=15 EnMin= -466.816086858669     IErMin=15 ErrMin= 1.66D-07
 ErrMax= 1.66D-07  0.00D+00 EMaxC= 1.00D-01 BMatC= 1.03D-11 BMatP= 3.60D-11
 IDIUse=1 WtCom= 1.00D+00 WtEn= 0.00D+00
 Coeff-Com: -0.247D-04 0.534D-04 0.102D-04-0.486D-03 0.682D-03 0.117D-02
 Coeff-Com: -0.108D-02-0.863D-02-0.646D-02 0.501D-01 0.254D-01-0.138D+00
 Coeff-Com: -0.276D+00 0.178D+00 0.118D+01
 Coeff:     -0.247D-04 0.534D-04 0.102D-04-0.486D-03 0.682D-03 0.117D-02
 Coeff:     -0.108D-02-0.863D-02-0.646D-02 0.501D-01 0.254D-01-0.138D+00
 Coeff:     -0.276D+00 0.178D+00 0.118D+01
 Gap=     0.248 Goal=   None    Shift=    0.000
 Gap=     0.248 Goal=   None    Shift=    0.000
 RMSDP=1.70D-08 MaxDP=8.21D-07 DE=-6.96D-11 OVMax= 5.74D-06

 Cycle  16  Pass 1  IDiag  1:
 RMSU=  4.25D-09    CP:  9.42D-01  2.20D+00  1.06D+00  1.72D+00  1.96D+00
                    CP:  1.72D+00  1.59D+00  1.74D+00  1.69D+00  1.80D+00
                    CP:  1.74D+00  1.69D+00  1.97D+00  2.11D+00  1.77D+00
 E= -466.816086858692     Delta-E=       -0.000000000023 Rises=F Damp=F
 DIIS: error= 6.97D-08 at cycle  16 NSaved=  16.
 NSaved=16 IEnMin=16 EnMin= -466.816086858692     IErMin=16 ErrMin= 6.97D-08
 ErrMax= 6.97D-08  0.00D+00 EMaxC= 1.00D-01 BMatC= 1.60D-12 BMatP= 1.03D-11
 IDIUse=1 WtCom= 1.00D+00 WtEn= 0.00D+00
 Coeff-Com:  0.397D-06-0.982D-06 0.658D-07 0.230D-04-0.487D-04-0.577D-04
 Coeff-Com:  0.249D-03 0.571D-03-0.112D-02-0.607D-02 0.101D-01 0.449D-01
 Coeff-Com: -0.466D-01-0.256D+00 0.590D-01 0.119D+01
 Coeff:      0.397D-06-0.982D-06 0.658D-07 0.230D-04-0.487D-04-0.577D-04
 Coeff:      0.249D-03 0.571D-03-0.112D-02-0.607D-02 0.101D-01 0.449D-01
 Coeff:     -0.466D-01-0.256D+00 0.590D-01 0.119D+01
 Gap=     0.248 Goal=   None    Shift=    0.000
 Gap=     0.248 Goal=   None    Shift=    0.000
 RMSDP=7.74D-09 MaxDP=3.62D-07 DE=-2.34D-11 OVMax= 2.72D-06

 Error on total polarization charges =  0.01103
 SCF Done:  E(UwB97XD) =  -466.816086859     A.U. after   16 cycles
            NFock= 16  Conv=0.77D-08     -V/T= 2.0061
 <Sx>= 0.0000 <Sy>= 0.0000 <Sz>= 0.0000 <S**2>= 0.9981 S= 0.6172
 <L.S>=  0.00000000000    
 KE= 4.639711473339D+02 PE=-2.467133576993D+03 EE= 8.436147989694D+02
 --------------------------------------------------------------------
 Variational PCM results
 =======================
 <psi(f)|   H    |psi(f)>                     (a.u.) =    -466.824007
 <psi(f)|H+V(f)/2|psi(f)>                     (a.u.) =    -466.825254
 Total free energy in solution:
 - with all non electrostatic terms           (a.u.) =    -466.816087
 --------------------------------------------------------------------
 (Polarized solute)-Solvent               (kcal/mol) =      -0.78
 --------------------------------------------------------------------
 Quantum repulsion energy                 (kcal/mol) =       5.75
 Total non electrostatic                  (kcal/mol) =       5.75
 --------------------------------------------------------------------
 Partition over spheres:
 Sphere  on Atom  Surface  Charge   GEl     GCav    GDR
    1               7.45   0.011   -0.04    0.00    0.00
    2               0.53   0.000   -0.00    0.00    0.00
    3               7.51  -0.010   -0.04    0.00    0.00
    4               3.63  -0.004   -0.01    0.00    0.00
    5               4.56   0.008   -0.04    0.00    0.00
    6               0.50   0.000   -0.00    0.00    0.00
    7               4.84  -0.007   -0.03    0.00    0.00
    8               3.39  -0.004   -0.01    0.00    0.00
    9               3.13   0.002   -0.00    0.00    0.00
   10               6.18  -0.006   -0.01    0.00    0.00
   11               4.24  -0.003   -0.01    0.00    0.00
   12               6.47   0.011   -0.06    0.00    0.00
   13               7.51  -0.010   -0.03    0.00    0.00
   14               7.30   0.010   -0.04    0.00    0.00
   15               7.51  -0.010   -0.04    0.00    0.00
   16               3.39   0.002    0.00    0.00    0.00
   17               4.14  -0.004   -0.02    0.00    0.00
   18               7.51  -0.008   -0.03    0.00    0.00
   19               4.74   0.008   -0.04    0.00    0.00
   20               5.09  -0.007   -0.03    0.00    0.00
   21               6.66   0.011   -0.06    0.00    0.00
   22               7.50  -0.010   -0.03    0.00    0.00
   23               3.01   0.002   -0.00    0.00    0.00
   24               3.34  -0.002   -0.01    0.00    0.00
   25               6.37  -0.006   -0.01    0.00    0.00
   26               3.21   0.001    0.00    0.00    0.00
   27               7.44  -0.008   -0.03    0.00    0.00
   28               4.14  -0.004   -0.02    0.00    0.00
 Added spheres:    77.53   0.025   -0.19    0.00    0.00
 --------------------------------------------------------------------
 After PCM corrections, the energy is  -466.816086859     a.u.
 --------------------------------------------------------------------
 Annihilation of the first spin contaminant:
 S**2 before annihilation     0.9981,   after     0.4842
 Leave Link  502 at Tue Aug  4 17:06:59 2020, MaxMem=  6442450944 cpu:            7300.8 elap:             307.0
 (Enter /scratch/scicomp/CentOS/7.3.1611/Haswell/software/Gaussian/g16/l601.exe)
 Copying SCF densities to generalized density rwf, IOpCl= 1 IROHF=0.

 **********************************************************************

            Population analysis using the SCF Density.

 **********************************************************************

 Alpha  occ. eigenvalues --  -10.29732 -10.29512 -10.28560 -10.28309 -10.28260
 Alpha  occ. eigenvalues --  -10.28216 -10.27980 -10.27904 -10.27799 -10.27776
 Alpha  occ. eigenvalues --  -10.27666 -10.27592  -0.94790  -0.92695  -0.85033
 Alpha  occ. eigenvalues --   -0.84344  -0.83441  -0.81469  -0.70904  -0.70099
 Alpha  occ. eigenvalues --   -0.69356  -0.67577  -0.59790  -0.59039  -0.58324
 Alpha  occ. eigenvalues --   -0.56176  -0.53304  -0.52682  -0.50548  -0.49289
 Alpha  occ. eigenvalues --   -0.48768  -0.48017  -0.47719  -0.47170  -0.46340
 Alpha  occ. eigenvalues --   -0.44577  -0.41354  -0.40703  -0.39749  -0.39368
 Alpha  occ. eigenvalues --   -0.38312  -0.36967  -0.33386  -0.24685
 Alpha virt. eigenvalues --    0.00163   0.10149   0.11406   0.13477   0.14099
 Alpha virt. eigenvalues --    0.14649   0.15560   0.16442   0.17021   0.17324
 Alpha virt. eigenvalues --    0.17742   0.18100   0.19371   0.20888   0.21379
 Alpha virt. eigenvalues --    0.22109   0.22385   0.23329   0.24146   0.24296
 Alpha virt. eigenvalues --    0.25552   0.25932   0.27034   0.27207   0.27693
 Alpha virt. eigenvalues --    0.29178   0.29525   0.30186   0.31193   0.31599
 Alpha virt. eigenvalues --    0.32028   0.32413   0.32630   0.33070   0.34540
 Alpha virt. eigenvalues --    0.34592   0.36134   0.36697   0.37278   0.37824
 Alpha virt. eigenvalues --    0.38360   0.39129   0.41556   0.41865   0.42572
 Alpha virt. eigenvalues --    0.43925   0.44519   0.45697   0.46168   0.46355
 Alpha virt. eigenvalues --    0.47119   0.47227   0.48850   0.49198   0.49248
 Alpha virt. eigenvalues --    0.49334   0.49808   0.49966   0.50764   0.51059
 Alpha virt. eigenvalues --    0.51272   0.51802   0.51956   0.52938   0.53518
 Alpha virt. eigenvalues --    0.53683   0.54701   0.54878   0.55577   0.56432
 Alpha virt. eigenvalues --    0.56903   0.57044   0.58273   0.58821   0.58950
 Alpha virt. eigenvalues --    0.59207   0.61157   0.61680   0.64025   0.65960
 Alpha virt. eigenvalues --    0.66747   0.68072   0.68248   0.69401   0.69527
 Alpha virt. eigenvalues --    0.71040   0.71840   0.74524   0.75767   0.75908
 Alpha virt. eigenvalues --    0.79319   0.79420   0.79546   0.82000   0.82375
 Alpha virt. eigenvalues --    0.83312   0.84632   0.86683   0.87794   0.88326
 Alpha virt. eigenvalues --    0.89762   0.89958   0.92934   0.94374   0.95078
 Alpha virt. eigenvalues --    0.96707   0.97296   0.98154   0.99220   1.00012
 Alpha virt. eigenvalues --    1.01936   1.02069   1.04352   1.04992   1.05960
 Alpha virt. eigenvalues --    1.07415   1.08646   1.09628   1.09899   1.10579
 Alpha virt. eigenvalues --    1.12285   1.14366   1.15924   1.17055   1.17710
 Alpha virt. eigenvalues --    1.18702   1.19403   1.19851   1.19971   1.20649
 Alpha virt. eigenvalues --    1.21685   1.23298   1.25041   1.25917   1.26482
 Alpha virt. eigenvalues --    1.27285   1.28196   1.28958   1.29109   1.29638
 Alpha virt. eigenvalues --    1.30544   1.30991   1.33428   1.34121   1.34796
 Alpha virt. eigenvalues --    1.35560   1.36349   1.36519   1.38430   1.39134
 Alpha virt. eigenvalues --    1.39315   1.39519   1.40358   1.41490   1.42359
 Alpha virt. eigenvalues --    1.43239   1.43284   1.44547   1.45181   1.46354
 Alpha virt. eigenvalues --    1.46478   1.47472   1.47801   1.49802   1.50818
 Alpha virt. eigenvalues --    1.50920   1.53980   1.54498   1.57432   1.57798
 Alpha virt. eigenvalues --    1.59759   1.60254   1.60724   1.62771   1.63662
 Alpha virt. eigenvalues --    1.65143   1.66707   1.67881   1.69217   1.69688
 Alpha virt. eigenvalues --    1.73460   1.74187   1.77266   1.77833   1.78474
 Alpha virt. eigenvalues --    1.80321   1.81237   1.82319   1.85397   1.86856
 Alpha virt. eigenvalues --    1.88292   1.89138   1.91782   1.92189   1.94334
 Alpha virt. eigenvalues --    1.97586   1.98255   2.01494   2.04871   2.05625
 Alpha virt. eigenvalues --    2.07484   2.07716   2.08577   2.11048   2.11510
 Alpha virt. eigenvalues --    2.13048   2.13946   2.16599   2.17918   2.18131
 Alpha virt. eigenvalues --    2.18554   2.19165   2.20265   2.21836   2.24165
 Alpha virt. eigenvalues --    2.25491   2.26220   2.28847   2.30770   2.32076
 Alpha virt. eigenvalues --    2.34724   2.37059   2.37309   2.39901   2.43386
 Alpha virt. eigenvalues --    2.45902   2.47002   2.47057   2.48257   2.50032
 Alpha virt. eigenvalues --    2.50989   2.54972   2.55235   2.56797   2.57578
 Alpha virt. eigenvalues --    2.57917   2.59912   2.60633   2.62787   2.63566
 Alpha virt. eigenvalues --    2.64020   2.64484   2.67898   2.68190   2.68857
 Alpha virt. eigenvalues --    2.69088   2.70727   2.71994   2.73135   2.73689
 Alpha virt. eigenvalues --    2.74072   2.75261   2.76330   2.77944   2.79380
 Alpha virt. eigenvalues --    2.79968   2.81228   2.82158   2.82526   2.82578
 Alpha virt. eigenvalues --    2.83155   2.85086   2.86056   2.86243   2.86954
 Alpha virt. eigenvalues --    2.87865   2.88779   2.89337   2.89668   2.90819
 Alpha virt. eigenvalues --    2.93165   2.94305   2.94834   2.95343   2.96010
 Alpha virt. eigenvalues --    2.97935   2.99630   3.00739   3.02319   3.03161
 Alpha virt. eigenvalues --    3.05267   3.06006   3.07016   3.07052   3.07507
 Alpha virt. eigenvalues --    3.09720   3.10246   3.10994   3.11317   3.11534
 Alpha virt. eigenvalues --    3.13143   3.13551   3.14730   3.15143   3.15478
 Alpha virt. eigenvalues --    3.15843   3.16490   3.17353   3.19792   3.20341
 Alpha virt. eigenvalues --    3.21174   3.21405   3.21688   3.22851   3.23169
 Alpha virt. eigenvalues --    3.24469   3.24619   3.25832   3.26341   3.26619
 Alpha virt. eigenvalues --    3.26844   3.27477   3.28319   3.30547   3.30995
 Alpha virt. eigenvalues --    3.31955   3.32186   3.32762   3.33765   3.35155
 Alpha virt. eigenvalues --    3.36145   3.36248   3.37383   3.38036   3.38452
 Alpha virt. eigenvalues --    3.39469   3.40258   3.41149   3.41501   3.42587
 Alpha virt. eigenvalues --    3.43063   3.44759   3.45770   3.46920   3.48731
 Alpha virt. eigenvalues --    3.49195   3.49760   3.50408   3.51714   3.51818
 Alpha virt. eigenvalues --    3.52005   3.53218   3.54718   3.56595   3.56954
 Alpha virt. eigenvalues --    3.57423   3.58276   3.59051   3.60558   3.61398
 Alpha virt. eigenvalues --    3.61838   3.62936   3.63261   3.64543   3.65931
 Alpha virt. eigenvalues --    3.68038   3.68208   3.70782   3.71419   3.73068
 Alpha virt. eigenvalues --    3.73295   3.77802   3.79290   3.79525   3.80154
 Alpha virt. eigenvalues --    3.82329   3.82714   3.83287   3.83639   3.84999
 Alpha virt. eigenvalues --    3.86879   3.87971   3.90446   3.90966   3.94050
 Alpha virt. eigenvalues --    3.94546   3.95390   3.95901   3.98411   4.02285
 Alpha virt. eigenvalues --    4.03731   4.05485   4.06500   4.09649   4.10208
 Alpha virt. eigenvalues --    4.11439   4.12576   4.12693   4.14707   4.16921
 Alpha virt. eigenvalues --    4.18861   4.18990   4.22182   4.22364   4.23366
 Alpha virt. eigenvalues --    4.23525   4.25403   4.27081   4.27912   4.28786
 Alpha virt. eigenvalues --    4.30677   4.34908   4.36162   4.36665   4.37877
 Alpha virt. eigenvalues --    4.40373   4.43474   4.45049   4.46701   4.49430
 Alpha virt. eigenvalues --    4.51209   4.53416   4.54040   4.55172   4.56420
 Alpha virt. eigenvalues --    4.57492   4.60554   4.62879   4.64103   4.67157
 Alpha virt. eigenvalues --    4.68115   4.69349   4.73493   4.74432   4.76930
 Alpha virt. eigenvalues --    4.77691   4.80473   4.80714   4.88419   4.90691
 Alpha virt. eigenvalues --    4.91595   4.91825   4.94054   4.95300   4.96290
 Alpha virt. eigenvalues --    4.97795   5.05035   5.05469   5.10373   5.11870
 Alpha virt. eigenvalues --    5.19706   5.20905   5.24234   5.25994   5.26240
 Alpha virt. eigenvalues --    5.31711   5.36502   5.36928   5.38062   5.38608
 Alpha virt. eigenvalues --    5.40921   5.43236   5.51943   5.52359   5.55089
 Alpha virt. eigenvalues --    5.62121   5.72514   5.72971   5.80568   5.83824
 Alpha virt. eigenvalues --    7.94316   7.95152   8.02588   8.04686   8.07775
 Alpha virt. eigenvalues --    8.10123   8.11489   8.15568   8.16726   8.22809
 Alpha virt. eigenvalues --    8.34251   8.37479  34.75547  34.76089  34.81454
 Alpha virt. eigenvalues --   34.82346  34.85742  34.87875  34.98358  34.99561
 Alpha virt. eigenvalues --   35.01618  35.04623  35.18521  35.22547
  Beta  occ. eigenvalues --  -10.29732 -10.29512 -10.28561 -10.28308 -10.28259
  Beta  occ. eigenvalues --  -10.28217 -10.27980 -10.27903 -10.27799 -10.27776
  Beta  occ. eigenvalues --  -10.27666 -10.27592  -0.94790  -0.92695  -0.85033
  Beta  occ. eigenvalues --   -0.84345  -0.83441  -0.81469  -0.70904  -0.70099
  Beta  occ. eigenvalues --   -0.69355  -0.67577  -0.59790  -0.59039  -0.58324
  Beta  occ. eigenvalues --   -0.56176  -0.53304  -0.52682  -0.50548  -0.49289
  Beta  occ. eigenvalues --   -0.48768  -0.48017  -0.47719  -0.47170  -0.46340
  Beta  occ. eigenvalues --   -0.44577  -0.41355  -0.40703  -0.39749  -0.39367
  Beta  occ. eigenvalues --   -0.38312  -0.36967  -0.33386  -0.24685
  Beta virt. eigenvalues --    0.00163   0.10148   0.11406   0.13477   0.14099
  Beta virt. eigenvalues --    0.14650   0.15560   0.16441   0.17021   0.17324
  Beta virt. eigenvalues --    0.17742   0.18100   0.19371   0.20887   0.21378
  Beta virt. eigenvalues --    0.22109   0.22387   0.23329   0.24148   0.24294
  Beta virt. eigenvalues --    0.25552   0.25932   0.27034   0.27206   0.27693
  Beta virt. eigenvalues --    0.29178   0.29525   0.30186   0.31193   0.31598
  Beta virt. eigenvalues --    0.32029   0.32413   0.32630   0.33070   0.34539
  Beta virt. eigenvalues --    0.34592   0.36134   0.36698   0.37278   0.37824
  Beta virt. eigenvalues --    0.38360   0.39129   0.41560   0.41862   0.42573
  Beta virt. eigenvalues --    0.43924   0.44519   0.45697   0.46168   0.46356
  Beta virt. eigenvalues --    0.47118   0.47228   0.48850   0.49199   0.49246
  Beta virt. eigenvalues --    0.49334   0.49808   0.49966   0.50764   0.51060
  Beta virt. eigenvalues --    0.51272   0.51802   0.51957   0.52938   0.53518
  Beta virt. eigenvalues --    0.53683   0.54701   0.54878   0.55577   0.56432
  Beta virt. eigenvalues --    0.56903   0.57044   0.58273   0.58821   0.58950
  Beta virt. eigenvalues --    0.59207   0.61156   0.61680   0.64025   0.65960
  Beta virt. eigenvalues --    0.66747   0.68071   0.68248   0.69401   0.69528
  Beta virt. eigenvalues --    0.71040   0.71841   0.74525   0.75767   0.75909
  Beta virt. eigenvalues --    0.79320   0.79420   0.79546   0.82000   0.82375
  Beta virt. eigenvalues --    0.83312   0.84632   0.86683   0.87794   0.88326
  Beta virt. eigenvalues --    0.89761   0.89958   0.92934   0.94374   0.95078
  Beta virt. eigenvalues --    0.96707   0.97296   0.98154   0.99220   1.00012
  Beta virt. eigenvalues --    1.01935   1.02070   1.04352   1.04992   1.05960
  Beta virt. eigenvalues --    1.07416   1.08646   1.09628   1.09899   1.10579
  Beta virt. eigenvalues --    1.12285   1.14366   1.15924   1.17055   1.17710
  Beta virt. eigenvalues --    1.18701   1.19404   1.19851   1.19972   1.20649
  Beta virt. eigenvalues --    1.21685   1.23298   1.25041   1.25918   1.26482
  Beta virt. eigenvalues --    1.27285   1.28196   1.28958   1.29109   1.29638
  Beta virt. eigenvalues --    1.30544   1.30991   1.33429   1.34121   1.34796
  Beta virt. eigenvalues --    1.35559   1.36349   1.36519   1.38430   1.39133
  Beta virt. eigenvalues --    1.39316   1.39519   1.40358   1.41490   1.42359
  Beta virt. eigenvalues --    1.43240   1.43284   1.44547   1.45181   1.46354
  Beta virt. eigenvalues --    1.46478   1.47472   1.47801   1.49802   1.50818
  Beta virt. eigenvalues --    1.50920   1.53980   1.54498   1.57432   1.57798
  Beta virt. eigenvalues --    1.59759   1.60254   1.60724   1.62771   1.63662
  Beta virt. eigenvalues --    1.65143   1.66707   1.67881   1.69217   1.69688
  Beta virt. eigenvalues --    1.73460   1.74187   1.77266   1.77833   1.78474
  Beta virt. eigenvalues --    1.80321   1.81237   1.82319   1.85397   1.86856
  Beta virt. eigenvalues --    1.88292   1.89138   1.91782   1.92189   1.94334
  Beta virt. eigenvalues --    1.97586   1.98255   2.01494   2.04871   2.05625
  Beta virt. eigenvalues --    2.07484   2.07716   2.08576   2.11048   2.11510
  Beta virt. eigenvalues --    2.13048   2.13946   2.16599   2.17918   2.18131
  Beta virt. eigenvalues --    2.18554   2.19165   2.20265   2.21836   2.24165
  Beta virt. eigenvalues --    2.25491   2.26220   2.28847   2.30770   2.32076
  Beta virt. eigenvalues --    2.34724   2.37059   2.37309   2.39901   2.43386
  Beta virt. eigenvalues --    2.45902   2.47001   2.47058   2.48257   2.50032
  Beta virt. eigenvalues --    2.50989   2.54972   2.55235   2.56797   2.57578
  Beta virt. eigenvalues --    2.57917   2.59912   2.60633   2.62787   2.63566
  Beta virt. eigenvalues --    2.64020   2.64484   2.67898   2.68190   2.68857
  Beta virt. eigenvalues --    2.69088   2.70727   2.71994   2.73135   2.73689
  Beta virt. eigenvalues --    2.74072   2.75261   2.76330   2.77944   2.79380
  Beta virt. eigenvalues --    2.79968   2.81228   2.82158   2.82525   2.82578
  Beta virt. eigenvalues --    2.83155   2.85086   2.86056   2.86244   2.86954
  Beta virt. eigenvalues --    2.87865   2.88779   2.89337   2.89668   2.90819
  Beta virt. eigenvalues --    2.93165   2.94305   2.94834   2.95343   2.96011
  Beta virt. eigenvalues --    2.97935   2.99630   3.00739   3.02319   3.03161
  Beta virt. eigenvalues --    3.05267   3.06006   3.07015   3.07052   3.07507
  Beta virt. eigenvalues --    3.09720   3.10246   3.10994   3.11317   3.11534
  Beta virt. eigenvalues --    3.13143   3.13551   3.14730   3.15143   3.15478
  Beta virt. eigenvalues --    3.15843   3.16490   3.17353   3.19792   3.20341
  Beta virt. eigenvalues --    3.21174   3.21405   3.21688   3.22851   3.23168
  Beta virt. eigenvalues --    3.24469   3.24619   3.25833   3.26341   3.26618
  Beta virt. eigenvalues --    3.26844   3.27477   3.28319   3.30547   3.30994
  Beta virt. eigenvalues --    3.31955   3.32187   3.32761   3.33765   3.35155
  Beta virt. eigenvalues --    3.36145   3.36249   3.37383   3.38036   3.38452
  Beta virt. eigenvalues --    3.39469   3.40258   3.41149   3.41501   3.42587
  Beta virt. eigenvalues --    3.43064   3.44758   3.45770   3.46920   3.48730
  Beta virt. eigenvalues --    3.49195   3.49760   3.50408   3.51714   3.51819
  Beta virt. eigenvalues --    3.52005   3.53218   3.54718   3.56595   3.56954
  Beta virt. eigenvalues --    3.57423   3.58276   3.59051   3.60558   3.61398
  Beta virt. eigenvalues --    3.61838   3.62936   3.63261   3.64543   3.65931
  Beta virt. eigenvalues --    3.68038   3.68208   3.70782   3.71419   3.73068
  Beta virt. eigenvalues --    3.73295   3.77802   3.79290   3.79525   3.80154
  Beta virt. eigenvalues --    3.82329   3.82714   3.83287   3.83639   3.84999
  Beta virt. eigenvalues --    3.86879   3.87971   3.90446   3.90966   3.94050
  Beta virt. eigenvalues --    3.94546   3.95390   3.95901   3.98411   4.02285
  Beta virt. eigenvalues --    4.03731   4.05485   4.06500   4.09649   4.10208
  Beta virt. eigenvalues --    4.11439   4.12576   4.12693   4.14707   4.16921
  Beta virt. eigenvalues --    4.18861   4.18990   4.22182   4.22364   4.23366
  Beta virt. eigenvalues --    4.23525   4.25403   4.27081   4.27912   4.28786
  Beta virt. eigenvalues --    4.30677   4.34908   4.36162   4.36665   4.37877
  Beta virt. eigenvalues --    4.40373   4.43474   4.45049   4.46701   4.49430
  Beta virt. eigenvalues --    4.51209   4.53416   4.54041   4.55172   4.56420
  Beta virt. eigenvalues --    4.57492   4.60554   4.62879   4.64103   4.67157
  Beta virt. eigenvalues --    4.68115   4.69349   4.73493   4.74432   4.76930
  Beta virt. eigenvalues --    4.77691   4.80473   4.80714   4.88419   4.90691
  Beta virt. eigenvalues --    4.91595   4.91825   4.94054   4.95300   4.96290
  Beta virt. eigenvalues --    4.97795   5.05035   5.05469   5.10373   5.11870
  Beta virt. eigenvalues --    5.19706   5.20905   5.24234   5.25994   5.26240
  Beta virt. eigenvalues --    5.31711   5.36502   5.36928   5.38062   5.38608
  Beta virt. eigenvalues --    5.40921   5.43236   5.51943   5.52359   5.55089
  Beta virt. eigenvalues --    5.62121   5.72514   5.72971   5.80568   5.83824
  Beta virt. eigenvalues --    7.94315   7.95152   8.02588   8.04686   8.07775
  Beta virt. eigenvalues --    8.10123   8.11489   8.15568   8.16726   8.22809
  Beta virt. eigenvalues --    8.34251   8.37479  34.75546  34.76089  34.81453
  Beta virt. eigenvalues --   34.82347  34.85742  34.87875  34.98358  34.99561
  Beta virt. eigenvalues --   35.01618  35.04623  35.18521  35.22547
          Condensed to atoms (all electrons):
               1          2          3          4          5          6
     1  C    5.256358   0.018480   0.427699  -0.003059   0.001853  -0.009425
     2  C    0.018480   5.355125  -0.001609   0.431942  -0.109158   0.285084
     3  H    0.427699  -0.001609   0.485473   0.000038  -0.000003   0.000133
     4  H   -0.003059   0.431942   0.000038   0.510870  -0.001973  -0.014811
     5  C    0.001853  -0.109158  -0.000003  -0.001973   5.329405   0.263196
     6  C   -0.009425   0.285084   0.000133  -0.014811   0.263196   5.355726
     7  H    0.000035  -0.001134   0.000003   0.000243   0.434471  -0.033106
     8  H   -0.000933  -0.014856  -0.000091   0.000702  -0.047044   0.431968
     9  C    0.002170  -0.064576  -0.000004  -0.006584  -0.043530   0.229318
    10  H   -0.000021   0.006976  -0.000001  -0.000314  -0.002726  -0.044888
    11  H   -0.000269  -0.007563   0.000004   0.000952   0.011866  -0.055199
    12  C   -0.000228   0.010612  -0.000001   0.003488   0.401959  -0.060932
    13  H   -0.000000  -0.000106   0.000000  -0.000007  -0.026479   0.003087
    14  C    0.000079  -0.009491  -0.000000  -0.000914  -0.052091   0.018525
    15  H   -0.000000   0.000133  -0.000000  -0.000092   0.004001  -0.001623
    16  C   -0.000336   0.019815   0.000000   0.000258  -0.000138  -0.075357
    17  H    0.000041   0.002490  -0.000000  -0.003641   0.006895  -0.012409
    18  H    0.000001  -0.000229   0.000000   0.000403  -0.002542   0.012814
    19  C   -0.052454   0.263645   0.003974  -0.047231   0.003302  -0.108921
    20  H    0.004252  -0.033089  -0.000125  -0.005412  -0.000442  -0.001152
    21  C    0.461510  -0.061080  -0.031834   0.006487   0.000125   0.010566
    22  H   -0.026017   0.003084  -0.004723  -0.000095   0.000045  -0.000107
    23  C   -0.090596   0.229716   0.004811  -0.020024   0.018315  -0.064544
    24  H    0.013433  -0.055322  -0.000038  -0.003361   0.006127  -0.007601
    25  H   -0.000837  -0.044825  -0.000131  -0.004677  -0.000355   0.006975
    26  C    0.269629  -0.075503  -0.026896   0.008280  -0.011539   0.019798
    27  H   -0.033608   0.012825  -0.004212  -0.000130   0.000162  -0.000230
    28  H   -0.039490  -0.012394   0.000311  -0.000144  -0.001661   0.002498
               7          8          9         10         11         12
     1  C    0.000035  -0.000933   0.002170  -0.000021  -0.000269  -0.000228
     2  C   -0.001134  -0.014856  -0.064576   0.006976  -0.007563   0.010612
     3  H    0.000003  -0.000091  -0.000004  -0.000001   0.000004  -0.000001
     4  H    0.000243   0.000702  -0.006584  -0.000314   0.000952   0.003488
     5  C    0.434471  -0.047044  -0.043530  -0.002726   0.011866   0.401959
     6  C   -0.033106   0.431968   0.229318  -0.044888  -0.055199  -0.060932
     7  H    0.475145  -0.005409   0.003265   0.000136  -0.000022  -0.033728
     8  H   -0.005409   0.510792  -0.020130  -0.004670  -0.003361   0.006474
     9  C    0.003265  -0.020130   5.038621   0.413426   0.457664   0.029378
    10  H    0.000136  -0.004670   0.413426   0.549226  -0.015431   0.001483
    11  H   -0.000022  -0.003361   0.457664  -0.015431   0.521773  -0.005578
    12  C   -0.033728   0.006474   0.029378   0.001483  -0.005578   5.020141
    13  H   -0.004017  -0.000095   0.000566  -0.000123   0.000027   0.417993
    14  C    0.004247  -0.003058  -0.090602  -0.000878   0.013433   0.460620
    15  H   -0.000124   0.000037   0.004810  -0.000132  -0.000037  -0.032137
    16  C   -0.001249   0.008287   0.323217  -0.025466  -0.056486  -0.046974
    17  H   -0.000005  -0.000145  -0.027469   0.004729  -0.004473  -0.007085
    18  H    0.000046  -0.000130  -0.042484  -0.006242  -0.002321   0.005060
    19  C   -0.000444  -0.002067   0.018418  -0.000347   0.005975   0.000109
    20  H    0.000002   0.000241   0.002999   0.000293  -0.003186  -0.000050
    21  C   -0.000049   0.003532  -0.004037  -0.000105   0.000028   0.000066
    22  H   -0.000001  -0.000006  -0.000063  -0.000003  -0.000018   0.000000
    23  C    0.002946  -0.006566   0.008072  -0.000242   0.000138  -0.004054
    24  H   -0.003187   0.000953   0.000139  -0.000021  -0.000006   0.000016
    25  H    0.000292  -0.000314  -0.000242   0.000014  -0.000021  -0.000103
    26  C   -0.001067   0.000232  -0.001778   0.000048   0.000010   0.001414
    27  H   -0.000027   0.000404   0.000022  -0.000001  -0.000003  -0.000012
    28  H    0.002029  -0.003650   0.000800   0.000006   0.000014   0.000063
              13         14         15         16         17         18
     1  C   -0.000000   0.000079  -0.000000  -0.000336   0.000041   0.000001
     2  C   -0.000106  -0.009491   0.000133   0.019815   0.002490  -0.000229
     3  H    0.000000  -0.000000  -0.000000   0.000000  -0.000000   0.000000
     4  H   -0.000007  -0.000914  -0.000092   0.000258  -0.003641   0.000403
     5  C   -0.026479  -0.052091   0.004001  -0.000138   0.006895  -0.002542
     6  C    0.003087   0.018525  -0.001623  -0.075357  -0.012409   0.012814
     7  H   -0.004017   0.004247  -0.000124  -0.001249  -0.000005   0.000046
     8  H   -0.000095  -0.003058   0.000037   0.008287  -0.000145  -0.000130
     9  C    0.000566  -0.090602   0.004810   0.323217  -0.027469  -0.042484
    10  H   -0.000123  -0.000878  -0.000132  -0.025466   0.004729  -0.006242
    11  H    0.000027   0.013433  -0.000037  -0.056486  -0.004473  -0.002321
    12  C    0.417993   0.460620  -0.032137  -0.046974  -0.007085   0.005060
    13  H    0.491117  -0.026034  -0.004733   0.003487  -0.000348  -0.000106
    14  C   -0.026034   5.257215   0.427969   0.269235  -0.039535  -0.033534
    15  H   -0.004733   0.427969   0.485532  -0.026845   0.000308  -0.004201
    16  C    0.003487   0.269235  -0.026845   4.983754   0.405639   0.424968
    17  H   -0.000348  -0.039535   0.000308   0.405639   0.574361  -0.022115
    18  H   -0.000106  -0.033534  -0.004201   0.424968  -0.022115   0.539764
    19  C    0.000045   0.001862  -0.000003  -0.011599  -0.001652   0.000162
    20  H   -0.000001   0.000037   0.000003  -0.001078   0.002030  -0.000027
    21  C    0.000000  -0.000227  -0.000001   0.001410   0.000062  -0.000012
    22  H    0.000000  -0.000000   0.000000   0.000004  -0.000004  -0.000001
    23  C   -0.000063   0.002177  -0.000004  -0.001776   0.000799   0.000022
    24  H   -0.000019  -0.000271   0.000004   0.000010   0.000014  -0.000003
    25  H   -0.000003  -0.000021  -0.000001   0.000048   0.000007  -0.000001
    26  C    0.000004  -0.000336   0.000000   0.000402  -0.000055  -0.000000
    27  H   -0.000001   0.000001   0.000000  -0.000000   0.000001  -0.000000
    28  H   -0.000004   0.000041  -0.000000  -0.000055  -0.000004   0.000001
              19         20         21         22         23         24
     1  C   -0.052454   0.004252   0.461510  -0.026017  -0.090596   0.013433
     2  C    0.263645  -0.033089  -0.061080   0.003084   0.229716  -0.055322
     3  H    0.003974  -0.000125  -0.031834  -0.004723   0.004811  -0.000038
     4  H   -0.047231  -0.005412   0.006487  -0.000095  -0.020024  -0.003361
     5  C    0.003302  -0.000442   0.000125   0.000045   0.018315   0.006127
     6  C   -0.108921  -0.001152   0.010566  -0.000107  -0.064544  -0.007601
     7  H   -0.000444   0.000002  -0.000049  -0.000001   0.002946  -0.003187
     8  H   -0.002067   0.000241   0.003532  -0.000006  -0.006566   0.000953
     9  C    0.018418   0.002999  -0.004037  -0.000063   0.008072   0.000139
    10  H   -0.000347   0.000293  -0.000105  -0.000003  -0.000242  -0.000021
    11  H    0.005975  -0.003186   0.000028  -0.000018   0.000138  -0.000006
    12  C    0.000109  -0.000050   0.000066   0.000000  -0.004054   0.000016
    13  H    0.000045  -0.000001   0.000000   0.000000  -0.000063  -0.000019
    14  C    0.001862   0.000037  -0.000227  -0.000000   0.002177  -0.000271
    15  H   -0.000003   0.000003  -0.000001   0.000000  -0.000004   0.000004
    16  C   -0.011599  -0.001078   0.001410   0.000004  -0.001776   0.000010
    17  H   -0.001652   0.002030   0.000062  -0.000004   0.000799   0.000014
    18  H    0.000162  -0.000027  -0.000012  -0.000001   0.000022  -0.000003
    19  C    5.328384   0.434429   0.402566  -0.026437  -0.043572   0.011866
    20  H    0.434429   0.475178  -0.033684  -0.004014   0.003265  -0.000023
    21  C    0.402566  -0.033684   5.019140   0.417954   0.029301  -0.005578
    22  H   -0.026437  -0.004014   0.417954   0.491144   0.000562   0.000027
    23  C   -0.043572   0.003265   0.029301   0.000562   5.037747   0.457591
    24  H    0.011866  -0.000023  -0.005578   0.000027   0.457591   0.522380
    25  H   -0.002647   0.000138   0.001438  -0.000124   0.413352  -0.015498
    26  C   -0.000003  -0.001245  -0.047203   0.003484   0.323377  -0.056462
    27  H   -0.002555   0.000046   0.005136  -0.000106  -0.042482  -0.002326
    28  H    0.006907  -0.000005  -0.007121  -0.000348  -0.027484  -0.004483
              25         26         27         28
     1  C   -0.000837   0.269629  -0.033608  -0.039490
     2  C   -0.044825  -0.075503   0.012825  -0.012394
     3  H   -0.000131  -0.026896  -0.004212   0.000311
     4  H   -0.004677   0.008280  -0.000130  -0.000144
     5  C   -0.000355  -0.011539   0.000162  -0.001661
     6  C    0.006975   0.019798  -0.000230   0.002498
     7  H    0.000292  -0.001067  -0.000027   0.002029
     8  H   -0.000314   0.000232   0.000404  -0.003650
     9  C   -0.000242  -0.001778   0.000022   0.000800
    10  H    0.000014   0.000048  -0.000001   0.000006
    11  H   -0.000021   0.000010  -0.000003   0.000014
    12  C   -0.000103   0.001414  -0.000012   0.000063
    13  H   -0.000003   0.000004  -0.000001  -0.000004
    14  C   -0.000021  -0.000336   0.000001   0.000041
    15  H   -0.000001   0.000000   0.000000  -0.000000
    16  C    0.000048   0.000402  -0.000000  -0.000055
    17  H    0.000007  -0.000055   0.000001  -0.000004
    18  H   -0.000001  -0.000000  -0.000000   0.000001
    19  C   -0.002647  -0.000003  -0.002555   0.006907
    20  H    0.000138  -0.001245   0.000046  -0.000005
    21  C    0.001438  -0.047203   0.005136  -0.007121
    22  H   -0.000124   0.003484  -0.000106  -0.000348
    23  C    0.413352   0.323377  -0.042482  -0.027484
    24  H   -0.015498  -0.056462  -0.002326  -0.004483
    25  H    0.549242  -0.025476  -0.006227   0.004726
    26  C   -0.025476   4.983615   0.424986   0.405654
    27  H   -0.006227   0.424986   0.539632  -0.022124
    28  H    0.004726   0.405654  -0.022124   0.574327
          Atomic-Atomic Spin Densities.
               1          2          3          4          5          6
     1  C   -0.635229  -0.004717   0.000821  -0.000132   0.000200  -0.005292
     2  C   -0.004717   0.178782  -0.000118  -0.002732  -0.066385   0.000120
     3  H    0.000821  -0.000118   0.022640   0.000001   0.000004   0.000037
     4  H   -0.000132  -0.002732   0.000001  -0.012951   0.003510   0.009503
     5  C    0.000200  -0.066385   0.000004   0.003510   0.772353  -0.043925
     6  C   -0.005292   0.000120   0.000037   0.009503  -0.043925  -0.178562
     7  H    0.000005   0.000575   0.000000  -0.000003  -0.002709   0.000484
     8  H    0.001761  -0.009504   0.000004   0.000000   0.001102   0.002701
     9  C    0.000103  -0.012841   0.000000  -0.001335  -0.000551   0.013048
    10  H   -0.000043   0.000513  -0.000000   0.000024  -0.001275   0.000803
    11  H    0.000243   0.001036  -0.000001  -0.000084  -0.000008   0.002109
    12  C    0.000068   0.010267  -0.000000  -0.001870  -0.016447   0.015002
    13  H    0.000000   0.000176  -0.000000  -0.000028  -0.001575   0.000474
    14  C    0.000000   0.005257  -0.000000  -0.001768  -0.053855   0.004658
    15  H    0.000000  -0.000038  -0.000000  -0.000004  -0.000204   0.000117
    16  C    0.000016  -0.001276   0.000000   0.001124   0.005278  -0.003184
    17  H   -0.000010  -0.003234   0.000000   0.000702   0.005145  -0.004373
    18  H    0.000000   0.000274  -0.000000  -0.000049  -0.000499   0.001133
    19  C    0.054014   0.043485   0.000209  -0.001064  -0.000063   0.066237
    20  H    0.000268  -0.000481  -0.000005  -0.000296  -0.000072  -0.000575
    21  C   -0.007195  -0.014768  -0.000243   0.001357   0.000981  -0.010190
    22  H    0.000747  -0.000464  -0.000208   0.000024   0.000010  -0.000174
    23  C   -0.002552  -0.013083   0.000262  -0.004329   0.002803   0.012849
    24  H   -0.000106  -0.002132  -0.000003   0.000276   0.002651  -0.001056
    25  H    0.000543  -0.000803  -0.000002   0.000107  -0.000613  -0.000512
    26  C    0.029844   0.003187  -0.000844  -0.000076  -0.000044   0.001293
    27  H    0.007188  -0.001128  -0.000144   0.000048   0.000006  -0.000275
    28  H    0.018908   0.004349   0.000005  -0.000211  -0.000033   0.003243
               7          8          9         10         11         12
     1  C    0.000005   0.001761   0.000103  -0.000043   0.000243   0.000068
     2  C    0.000575  -0.009504  -0.012841   0.000513   0.001036   0.010267
     3  H    0.000000   0.000004   0.000000  -0.000000  -0.000001  -0.000000
     4  H   -0.000003   0.000000  -0.001335   0.000024  -0.000084  -0.001870
     5  C   -0.002709   0.001102  -0.000551  -0.001275  -0.000008  -0.016447
     6  C    0.000484   0.002701   0.013048   0.000803   0.002109   0.015002
     7  H   -0.025085   0.000296  -0.000345  -0.000014   0.000005   0.001911
     8  H    0.000296   0.012946   0.004327  -0.000107  -0.000273  -0.001366
     9  C   -0.000345   0.004327   0.008036  -0.001790  -0.001193  -0.003990
    10  H   -0.000014  -0.000107  -0.001790  -0.001975   0.000885   0.000848
    11  H    0.000005  -0.000273  -0.001193   0.000885  -0.001347  -0.000059
    12  C    0.001911  -0.001366  -0.003990   0.000848  -0.000059  -0.238037
    13  H    0.000250  -0.000024  -0.000141   0.000018  -0.000001   0.001778
    14  C   -0.000268   0.000135   0.002593  -0.000540   0.000103   0.007048
    15  H    0.000005  -0.000001  -0.000262   0.000002   0.000003   0.000251
    16  C    0.000060   0.000074   0.006746   0.000437   0.000003   0.004226
    17  H   -0.000020   0.000211  -0.001059   0.000104  -0.000284  -0.001393
    18  H    0.000001  -0.000048   0.002065  -0.000350   0.000176   0.000961
    19  C    0.000071  -0.003501  -0.002887   0.000610  -0.002585  -0.000952
    20  H    0.000000   0.000003   0.000227   0.000011  -0.000175   0.000028
    21  C   -0.000028   0.001869   0.000092  -0.000071   0.000232  -0.000002
    22  H   -0.000000   0.000028  -0.000002  -0.000001   0.000012  -0.000000
    23  C   -0.000225   0.001332  -0.000005   0.000003  -0.000183  -0.000085
    24  H    0.000175   0.000086   0.000185  -0.000003  -0.000000  -0.000239
    25  H   -0.000011  -0.000024  -0.000003  -0.000000   0.000003   0.000071
    26  C    0.000128  -0.001119  -0.000101   0.000015  -0.000033  -0.000178
    27  H    0.000005   0.000049   0.000010  -0.000000   0.000002   0.000008
    28  H   -0.000081  -0.000700  -0.000163   0.000012  -0.000036  -0.000123
              13         14         15         16         17         18
     1  C    0.000000   0.000000   0.000000   0.000016  -0.000010   0.000000
     2  C    0.000176   0.005257  -0.000038  -0.001276  -0.003234   0.000274
     3  H   -0.000000  -0.000000  -0.000000   0.000000   0.000000  -0.000000
     4  H   -0.000028  -0.001768  -0.000004   0.001124   0.000702  -0.000049
     5  C   -0.001575  -0.053855  -0.000204   0.005278   0.005145  -0.000499
     6  C    0.000474   0.004658   0.000117  -0.003184  -0.004373   0.001133
     7  H    0.000250  -0.000268   0.000005   0.000060  -0.000020   0.000001
     8  H   -0.000024   0.000135  -0.000001   0.000074   0.000211  -0.000048
     9  C   -0.000141   0.002593  -0.000262   0.006746  -0.001059   0.002065
    10  H    0.000018  -0.000540   0.000002   0.000437   0.000104  -0.000350
    11  H   -0.000001   0.000103   0.000003   0.000003  -0.000284   0.000176
    12  C    0.001778   0.007048   0.000251   0.004226  -0.001393   0.000961
    13  H    0.008381  -0.000762   0.000207   0.000100  -0.000048   0.000019
    14  C   -0.000762   0.635344  -0.000828  -0.029910  -0.018860  -0.007202
    15  H    0.000207  -0.000828  -0.022644   0.000840  -0.000001   0.000142
    16  C    0.000100  -0.029910   0.000840  -0.033916   0.010336   0.004731
    17  H   -0.000048  -0.018860  -0.000001   0.010336   0.050517  -0.007930
    18  H    0.000019  -0.007202   0.000142   0.004731  -0.007930   0.019603
    19  C   -0.000010  -0.000209  -0.000004   0.000078   0.000023  -0.000005
    20  H    0.000000  -0.000005  -0.000000  -0.000129   0.000080  -0.000005
    21  C    0.000000  -0.000067   0.000000   0.000174   0.000125  -0.000008
    22  H   -0.000000  -0.000000   0.000000   0.000002   0.000002  -0.000000
    23  C    0.000002  -0.000102  -0.000000   0.000104   0.000162  -0.000010
    24  H   -0.000013  -0.000245   0.000001   0.000033   0.000036  -0.000002
    25  H    0.000001   0.000043   0.000000  -0.000015  -0.000012   0.000000
    26  C   -0.000002  -0.000017  -0.000000   0.000000   0.000008  -0.000000
    27  H    0.000000  -0.000000   0.000000   0.000000  -0.000000  -0.000000
    28  H   -0.000002   0.000010  -0.000000  -0.000008  -0.000000   0.000000
              19         20         21         22         23         24
     1  C    0.054014   0.000268  -0.007195   0.000747  -0.002552  -0.000106
     2  C    0.043485  -0.000481  -0.014768  -0.000464  -0.013083  -0.002132
     3  H    0.000209  -0.000005  -0.000243  -0.000208   0.000262  -0.000003
     4  H   -0.001064  -0.000296   0.001357   0.000024  -0.004329   0.000276
     5  C   -0.000063  -0.000072   0.000981   0.000010   0.002803   0.002651
     6  C    0.066237  -0.000575  -0.010190  -0.000174   0.012849  -0.001056
     7  H    0.000071   0.000000  -0.000028  -0.000000  -0.000225   0.000175
     8  H   -0.003501   0.000003   0.001869   0.000028   0.001332   0.000086
     9  C   -0.002887   0.000227   0.000092  -0.000002  -0.000005   0.000185
    10  H    0.000610   0.000011  -0.000071  -0.000001   0.000003  -0.000003
    11  H   -0.002585  -0.000175   0.000232   0.000012  -0.000183  -0.000000
    12  C   -0.000952   0.000028  -0.000002  -0.000000  -0.000085  -0.000239
    13  H   -0.000010   0.000000   0.000000  -0.000000   0.000002  -0.000013
    14  C   -0.000209  -0.000005  -0.000067  -0.000000  -0.000102  -0.000245
    15  H   -0.000004  -0.000000   0.000000   0.000000  -0.000000   0.000001
    16  C    0.000078  -0.000129   0.000174   0.000002   0.000104   0.000033
    17  H    0.000023   0.000080   0.000125   0.000002   0.000162   0.000036
    18  H   -0.000005  -0.000005  -0.000008  -0.000000  -0.000010  -0.000002
    19  C   -0.771462   0.002704   0.015954   0.001541   0.000672   0.000005
    20  H    0.002704   0.025085  -0.001910  -0.000250   0.000343  -0.000006
    21  C    0.015954  -0.001910   0.238396  -0.001749   0.003915   0.000061
    22  H    0.001541  -0.000250  -0.001749  -0.008372   0.000139   0.000001
    23  C    0.000672   0.000343   0.003915   0.000139  -0.008037   0.001187
    24  H    0.000005  -0.000006   0.000061   0.000001   0.001187   0.001354
    25  H    0.001276   0.000014  -0.000849  -0.000018   0.001796  -0.000890
    26  C   -0.005340  -0.000060  -0.004166  -0.000097  -0.006752   0.000003
    27  H    0.000492  -0.000001  -0.000948  -0.000019  -0.002079  -0.000177
    28  H   -0.005114   0.000020   0.001353   0.000047   0.001087   0.000286
              25         26         27         28
     1  C    0.000543   0.029844   0.007188   0.018908
     2  C   -0.000803   0.003187  -0.001128   0.004349
     3  H   -0.000002  -0.000844  -0.000144   0.000005
     4  H    0.000107  -0.000076   0.000048  -0.000211
     5  C   -0.000613  -0.000044   0.000006  -0.000033
     6  C   -0.000512   0.001293  -0.000275   0.003243
     7  H   -0.000011   0.000128   0.000005  -0.000081
[...]
     1  C    0.000353   0.025921   0.007041   0.017423
     2  C   -0.000515   0.003580  -0.001547   0.005854
     3  H   -0.000003  -0.000711  -0.000124  -0.000014
     4  H    0.000137  -0.000013   0.000044  -0.000198
     5  C   -0.000535  -0.000752  -0.000008   0.000305
     6  C   -0.000390   0.000530  -0.000153   0.001889
     7  H   -0.000007   0.000181   0.000005  -0.000099
     8  H   -0.000019  -0.001003   0.000031  -0.000375
     9  C   -0.000015  -0.000123   0.000012  -0.000188
    10  H    0.000000   0.000009  -0.000000   0.000010
    11  H    0.000003  -0.000012   0.000001  -0.000025
    12  C    0.000066  -0.000104   0.000005  -0.000090
    13  H    0.000001  -0.000002   0.000000  -0.000001
    14  C    0.000035  -0.000001  -0.000000   0.000005
    15  H    0.000000  -0.000000   0.000000  -0.000000
    16  C   -0.000009  -0.000001  -0.000000   0.000000
    17  H   -0.000010  -0.000001   0.000000   0.000000
    18  H    0.000000   0.000000  -0.000000  -0.000000
    19  C    0.001135  -0.003612   0.000667  -0.005585
    20  H    0.000006  -0.000098  -0.000003   0.000028
    21  C   -0.000775  -0.004490  -0.000988   0.001637
    22  H   -0.000013  -0.000133  -0.000019   0.000047
    23  C    0.000921  -0.008134  -0.001240  -0.000594
    24  H   -0.000722  -0.000220  -0.000179   0.000324
    25  H    0.001974   0.000030   0.000311  -0.000113
    26  C    0.000030   0.035874  -0.005239  -0.008396
    27  H    0.000311  -0.005239  -0.019205   0.007591
    28  H   -0.000113  -0.008396   0.007591  -0.049773
 Mulliken charges and spin densities:
               1          2
     1  C   -0.195419  -0.538205
     2  C   -0.175718   0.113848
     3  H    0.150386   0.022033
     4  H    0.162297  -0.010378
     5  C   -0.191091   0.603775
     6  C   -0.173547  -0.113834
     7  H    0.166694  -0.024364
     8  H    0.161558   0.010377
     9  C   -0.250131   0.010255
    10  H    0.134704  -0.001845
    11  H    0.148402  -0.001094
    12  C   -0.165380  -0.220581
    13  H    0.148504   0.008660
    14  C   -0.195500   0.538108
    15  H    0.150424  -0.022027
    16  C   -0.196109  -0.033094
    17  H    0.126451   0.030352
    18  H    0.135281   0.012994
    19  C   -0.192078  -0.603723
    20  H    0.167647   0.024343
    21  C   -0.164680   0.220585
    22  H    0.148598  -0.008664
    23  C   -0.249908  -0.010192
    24  H    0.148986   0.001075
    25  H    0.134542   0.001845
    26  C   -0.197901   0.033081
    27  H    0.135411  -0.012996
    28  H    0.127578  -0.030335
 Sum of Mulliken charges =  -0.00000  -0.00000
 Mulliken charges and spin densities with hydrogens summed into heavy atoms:
               1          2
     1  C   -0.045032  -0.516172
     2  C   -0.013422   0.103470
     5  C   -0.024397   0.579411
     6  C   -0.011989  -0.103457
     9  C    0.032975   0.007316
    12  C   -0.016876  -0.211922
    14  C   -0.045076   0.516082
    16  C    0.065623   0.010253
    19  C   -0.024431  -0.579379
    21  C   -0.016083   0.211921
    23  C    0.033620  -0.007272
    26  C    0.065089  -0.010250
 Electronic spatial extent (au):  <R**2>=           2181.4851
 Charge=             -0.0000 electrons
 Dipole moment (field-independent basis, Debye):
    X=             -0.0009    Y=             -0.0015    Z=             -0.0022  Tot=              0.0028
 Quadrupole moment (field-independent basis, Debye-Ang):
   XX=            -70.0632   YY=            -69.4562   ZZ=            -74.8874
   XY=             -2.7306   XZ=             -3.0607   YZ=             -0.3990
 Traceless Quadrupole moment (field-independent basis, Debye-Ang):
   XX=              1.4058   YY=              2.0127   ZZ=             -3.4185
   XY=             -2.7306   XZ=             -3.0607   YZ=             -0.3990
 Octapole moment (field-independent basis, Debye-Ang**2):
  XXX=             -0.0066  YYY=             -0.0065  ZZZ=             -0.0160  XYY=              0.0155
  XXY=             -0.0041  XXZ=             -0.0078  XZZ=             -0.0158  YZZ=             -0.0023
  YYZ=              0.0008  XYZ=             -0.0113
 Hexadecapole moment (field-independent basis, Debye-Ang**3):
 XXXX=          -1959.0611 YYYY=           -620.0375 ZZZZ=           -294.0217 XXXY=            -89.0736
 XXXZ=           -114.5436 YYYX=            -57.9704 YYYZ=              0.9308 ZZZX=            -61.9289
 ZZZY=             -6.9335 XXYY=           -428.7283 XXZZ=           -405.4518 YYZZ=           -167.1688
 XXYZ=            -20.4957 YYXZ=            -24.5568 ZZXY=            -40.5189
 N-N= 6.927315438308D+02 E-N=-2.467813463368D+03  KE= 4.640828397230D+02
                          Isotropic Fermi Contact Couplings
        Atom                 a.u.       MegaHertz       Gauss      10(-4) cm-1
     1  C(13)             -0.04152     -23.33609      -8.32690      -7.78408
     2  C(13)              0.07142      40.14584      14.32503      13.39121
     3  H(1)               0.00827      18.47505       6.59236       6.16261
     4  H(1)              -0.00543     -12.14236      -4.33270      -4.05026
     5  C(13)              0.04715      26.50384       9.45723       8.84073
     6  C(13)             -0.07142     -40.14509     -14.32477     -13.39096
     7  H(1)              -0.00929     -20.76422      -7.40919      -6.92620
     8  H(1)               0.00543      12.14573       4.33390       4.05138
     9  C(13)              0.00588       3.30697       1.18001       1.10309
    10  H(1)              -0.00123      -2.74441      -0.97928      -0.91544
    11  H(1)              -0.00045      -1.01059      -0.36060      -0.33710
    12  C(13)             -0.04189     -23.54518      -8.40151      -7.85383
    13  H(1)               0.00294       6.57835       2.34732       2.19430
    14  C(13)              0.04151      23.33270       8.32569       7.78295
    15  H(1)              -0.00827     -18.47296      -6.59161      -6.16192
    16  C(13)             -0.01748      -9.82675      -3.50643      -3.27785
    17  H(1)               0.01470      32.84795      11.72097      10.95690
    18  H(1)               0.00619      13.83364       4.93619       4.61441
    19  C(13)             -0.04715     -26.50430      -9.45739      -8.84088
    20  H(1)               0.00929      20.76549       7.40964       6.92662
    21  C(13)              0.04189      23.54696       8.40214       7.85442
    22  H(1)              -0.00294      -6.57989      -2.34787      -2.19482
    23  C(13)             -0.00589      -3.30826      -1.18047      -1.10352
    24  H(1)               0.00045       1.01155       0.36095       0.33742
    25  H(1)               0.00123       2.74420       0.97920       0.91537
    26  C(13)              0.01748       9.82656       3.50636       3.27779
    27  H(1)              -0.00619     -13.83502      -4.93668      -4.61487
    28  H(1)              -0.01470     -32.85743     -11.72435     -10.96006
 --------------------------------------------------------
       Center         ----  Spin Dipole Couplings  ----
                      3XX-RR        3YY-RR        3ZZ-RR
 --------------------------------------------------------
     1   Atom        0.120295      0.322332     -0.442627
     2   Atom       -0.016836     -0.060351      0.077187
     3   Atom       -0.031581      0.040851     -0.009270
     4   Atom       -0.000262     -0.008241      0.008503
     5   Atom       -0.226759     -0.358911      0.585671
     6   Atom        0.016837      0.060326     -0.077163
     7   Atom       -0.016635      0.015780      0.000855
     8   Atom        0.000262      0.008239     -0.008500
     9   Atom       -0.000529      0.007160     -0.006631
    10   Atom       -0.004061      0.003375      0.000686
    11   Atom       -0.005454      0.006409     -0.000955
    12   Atom        0.069155      0.100997     -0.170152
    13   Atom        0.007289     -0.002595     -0.004694
    14   Atom       -0.120292     -0.322291      0.442583
    15   Atom        0.031577     -0.040846      0.009269
    16   Atom       -0.004780      0.002584      0.002197
    17   Atom       -0.007673      0.008415     -0.000741
    18   Atom       -0.005935      0.009828     -0.003893
    19   Atom        0.226798      0.358911     -0.585709
    20   Atom        0.016631     -0.015779     -0.000852
    21   Atom       -0.069166     -0.101019      0.170185
    22   Atom       -0.007290      0.002595      0.004694
    23   Atom        0.000526     -0.007151      0.006625
    24   Atom        0.005453     -0.006409      0.000955
    25   Atom        0.004061     -0.003375     -0.000686
    26   Atom        0.004786     -0.002578     -0.002208
    27   Atom        0.005936     -0.009829      0.003892
    28   Atom        0.007677     -0.008412      0.000735
 --------------------------------------------------------
                        XY            XZ            YZ
 --------------------------------------------------------
     1   Atom        0.003072     -0.379067      0.009918
     2   Atom        0.014461      0.079714      0.035801
     3   Atom       -0.007652      0.016623      0.004620
     4   Atom       -0.004472      0.001847      0.008567
     5   Atom       -0.029077      0.354348     -0.043116
     6   Atom       -0.014452     -0.079678     -0.035791
     7   Atom       -0.042953      0.005528      0.013881
     8   Atom        0.004471     -0.001850     -0.008566
     9   Atom       -0.012111     -0.011385      0.003274
    10   Atom       -0.000712     -0.003602     -0.005011
    11   Atom        0.004515     -0.007835     -0.000127
    12   Atom       -0.009675     -0.129129      0.019742
    13   Atom       -0.007434     -0.007636      0.003142
    14   Atom       -0.003081      0.379010     -0.009933
    15   Atom        0.007650     -0.016622     -0.004619
    16   Atom        0.001937      0.006877     -0.000485
    17   Atom        0.004103      0.001789      0.004796
    18   Atom       -0.002283     -0.000692     -0.002444
    19   Atom        0.029057     -0.354286      0.043070
    20   Atom        0.042955     -0.005533     -0.013869
    21   Atom        0.009676      0.129154     -0.019741
    22   Atom        0.007437      0.007636     -0.003145
    23   Atom        0.012097      0.011385     -0.003270
    24   Atom       -0.004516      0.007835      0.000127
    25   Atom        0.000712      0.003603      0.005010
    26   Atom       -0.001946     -0.006888      0.000474
    27   Atom        0.002283      0.000693      0.002445
    28   Atom       -0.004105     -0.001791     -0.004797
 --------------------------------------------------------


 ---------------------------------------------------------------------------------
              Anisotropic Spin Dipole Couplings in Principal Axis System
 ---------------------------------------------------------------------------------

       Atom             a.u.   MegaHertz   Gauss  10(-4) cm-1        Axes

              Baa    -0.6334   -84.998   -30.329   -28.352  0.4493 -0.0107  0.8933
     1 C(13)  Bbb     0.3107    41.696    14.878    13.908  0.8847  0.1445 -0.4432
              Bcc     0.3227    43.302    15.451    14.444 -0.1243  0.9894  0.0744
 
              Baa    -0.0710    -9.531    -3.401    -3.179  0.3579  0.8453 -0.3967
     2 C(13)  Bbb    -0.0594    -7.967    -2.843    -2.657  0.7999 -0.4967 -0.3367
              Bcc     0.1304    17.498     6.244     5.837  0.4817  0.1968  0.8540
 
              Baa    -0.0414   -22.096    -7.884    -7.370  0.8767  0.1079 -0.4689
     3 H(1)   Bbb    -0.0004    -0.220    -0.078    -0.073  0.4727 -0.0110  0.8812
              Bcc     0.0418    22.316     7.963     7.444 -0.0899  0.9941  0.0606
 
              Baa    -0.0136    -7.258    -2.590    -2.421  0.3410  0.8666 -0.3644
     4 H(1)   Bbb     0.0015     0.797     0.284     0.266  0.9401 -0.3131  0.1350
              Bcc     0.0121     6.461     2.305     2.155 -0.0029  0.3885  0.9214
 
              Baa    -0.3725   -49.992   -17.838   -16.676  0.6505  0.7305 -0.2077
     5 C(13)  Bbb    -0.3483   -46.742   -16.679   -15.592 -0.6735  0.6813  0.2870
              Bcc     0.7209    96.734    34.517    32.267  0.3511 -0.0468  0.9352
 
              Baa    -0.1303   -17.491    -6.241    -5.834  0.4816  0.1968  0.8540
     6 C(13)  Bbb     0.0593     7.963     2.842     2.656  0.7999 -0.4968 -0.3366
              Bcc     0.0710     9.528     3.400     3.178  0.3581  0.8452 -0.3967
 
              Baa    -0.0495   -26.389    -9.416    -8.802  0.7855  0.5690 -0.2433
     7 H(1)   Bbb     0.0024     1.301     0.464     0.434  0.3040 -0.0124  0.9526
              Bcc     0.0470    25.088     8.952     8.368 -0.5390  0.8223  0.1827
 
              Baa    -0.0121    -6.460    -2.305    -2.155 -0.0026  0.3885  0.9214
     8 H(1)   Bbb    -0.0015    -0.797    -0.284    -0.266  0.9401 -0.3133  0.1348
              Bcc     0.0136     7.257     2.589     2.421  0.3410  0.8665 -0.3644
 
              Baa    -0.0166    -2.229    -0.795    -0.743  0.6779  0.2502  0.6913
     9 C(13)  Bbb    -0.0030    -0.403    -0.144    -0.134  0.3932  0.6711 -0.6284
              Bcc     0.0196     2.632     0.939     0.878 -0.6212  0.6979  0.3565
 
              Baa    -0.0070    -3.755    -1.340    -1.253  0.7598  0.3234  0.5640
    10 H(1)   Bbb    -0.0004    -0.230    -0.082    -0.077  0.6320 -0.5712 -0.5238
              Bcc     0.0075     3.986     1.422     1.330  0.1528  0.7545 -0.6383
 
              Baa    -0.0120    -6.429    -2.294    -2.144  0.8026 -0.1924  0.5646
    11 H(1)   Bbb     0.0031     1.634     0.583     0.545 -0.3877  0.5510  0.7390
              Bcc     0.0090     4.795     1.711     1.599  0.4533  0.8120 -0.3676
 
              Baa    -0.2272   -30.483   -10.877   -10.168  0.3979 -0.0434  0.9164
    12 C(13)  Bbb     0.0930    12.479     4.453     4.162  0.4351  0.8883 -0.1469
              Bcc     0.1342    18.004     6.424     6.005  0.8077 -0.4572 -0.3724
 
              Baa    -0.0085    -4.524    -1.614    -1.509  0.4916  0.1643  0.8552
    13 H(1)   Bbb    -0.0063    -3.346    -1.194    -1.116  0.2964  0.8918 -0.3418
              Bcc     0.0148     7.870     2.808     2.625  0.8188 -0.4215 -0.3897
 
              Baa    -0.3227   -43.297   -15.449   -14.442 -0.1243  0.9895  0.0744
    14 C(13)  Bbb    -0.3107   -41.690   -14.876   -13.906  0.8847  0.1444 -0.4432
              Bcc     0.6333    84.987    30.325    28.349  0.4493 -0.0107  0.8933
 
              Baa    -0.0418   -22.313    -7.962    -7.443 -0.0899  0.9941  0.0606
    15 H(1)   Bbb     0.0004     0.219     0.078     0.073  0.4727 -0.0110  0.8812
              Bcc     0.0414    22.094     7.884     7.370  0.8766  0.1079 -0.4689
 
              Baa    -0.0093    -1.249    -0.446    -0.417  0.8446 -0.1584 -0.5115
    16 C(13)  Bbb     0.0028     0.375     0.134     0.125  0.0497  0.9743 -0.2196
              Bcc     0.0065     0.874     0.312     0.292  0.5332  0.1600  0.8307
 
              Baa    -0.0087    -4.652    -1.660    -1.552  0.9738 -0.2069 -0.0941
    17 H(1)   Bbb    -0.0028    -1.490    -0.532    -0.497  0.0049 -0.3949  0.9187
              Bcc     0.0115     6.142     2.192     2.049  0.2272  0.8951  0.3836
 
              Baa    -0.0067    -3.568    -1.273    -1.190  0.9054  0.1819  0.3836
    18 H(1)   Bbb    -0.0038    -2.049    -0.731    -0.684 -0.4044  0.0950  0.9096
              Bcc     0.0105     5.617     2.004     1.874 -0.1290  0.9787 -0.1596
 
              Baa    -0.7209   -96.732   -34.516   -32.266  0.3511 -0.0468  0.9352
    19 C(13)  Bbb     0.3483    46.741    16.678    15.591 -0.6736  0.6812  0.2869
              Bcc     0.3725    49.991    17.838    16.675  0.6504  0.7306 -0.2076
 
              Baa    -0.0470   -25.086    -8.951    -8.368 -0.5391  0.8223  0.1824
    20 H(1)   Bbb    -0.0024    -1.301    -0.464    -0.434  0.3038 -0.0122  0.9527
              Bcc     0.0495    26.388     9.416     8.802  0.7856  0.5690 -0.2432
 
              Baa    -0.1342   -18.007    -6.425    -6.006  0.8077 -0.4572 -0.3724
    21 C(13)  Bbb    -0.0930   -12.482    -4.454    -4.163  0.4351  0.8883 -0.1469
              Bcc     0.2272    30.489    10.879    10.170  0.3979 -0.0434  0.9164
 
              Baa    -0.0148    -7.872    -2.809    -2.626  0.8188 -0.4216 -0.3897
    22 H(1)   Bbb     0.0063     3.347     1.194     1.117  0.2966  0.8918 -0.3417
              Bcc     0.0085     4.524     1.614     1.509  0.4916  0.1642  0.8552
 
              Baa    -0.0196    -2.630    -0.938    -0.877 -0.6213  0.6977  0.3568
    23 C(13)  Bbb     0.0030     0.402     0.143     0.134  0.3932  0.6714 -0.6282
              Bcc     0.0166     2.228     0.795     0.743  0.6778  0.2500  0.6915
 
              Baa    -0.0090    -4.795    -1.711    -1.600  0.4534  0.8120 -0.3676
    24 H(1)   Bbb    -0.0031    -1.633    -0.583    -0.545 -0.3877  0.5510  0.7389
              Bcc     0.0120     6.429     2.294     2.144  0.8026 -0.1925  0.5646
 
              Baa    -0.0075    -3.986    -1.422    -1.329  0.1529  0.7544 -0.6383
    25 H(1)   Bbb     0.0004     0.230     0.082     0.077  0.6320 -0.5712 -0.5237
              Bcc     0.0070     3.756     1.340     1.253  0.7597  0.3233  0.5641
 
              Baa    -0.0065    -0.877    -0.313    -0.293  0.5330  0.1625  0.8304
    26 C(13)  Bbb    -0.0028    -0.373    -0.133    -0.125  0.0486  0.9739 -0.2218
              Bcc     0.0093     1.251     0.446     0.417  0.8447 -0.1585 -0.5112
 
              Baa    -0.0105    -5.617    -2.004    -1.874 -0.1290  0.9787 -0.1597
    27 H(1)   Bbb     0.0038     2.049     0.731     0.683 -0.4043  0.0952  0.9097
              Bcc     0.0067     3.569     1.273     1.190  0.9055  0.1819  0.3834
 
              Baa    -0.0115    -6.142    -2.192    -2.049  0.2273  0.8950  0.3838
    28 H(1)   Bbb     0.0028     1.488     0.531     0.496  0.0048 -0.3952  0.9186
              Bcc     0.0087     4.654     1.661     1.552  0.9738 -0.2069 -0.0941
 

 ---------------------------------------------------------------------------------

 No NMR shielding tensors so no spin-rotation constants.
 Leave Link  601 at Tue Aug  4 17:38:30 2020, MaxMem=  6442450944 cpu:               8.8 elap:               0.5
 (Enter /scratch/scicomp/CentOS/7.3.1611/Haswell/software/Gaussian/g16/l9999.exe)
 1\1\GINC-ATLAS-205\SP\UwB97XD\def2TZVP\C12H16\BOCHEN\04-Aug-2020\0\\#p
  uwb97xd guess=mix def2tzvp # scrf=(iefpcm,solvent=Cyclohexane,read) n
 osym 6d 10f\\endo-2 xp-pcm for eta=3\\0,1\C,0,-3.119734,-0.42693,0.248
 214\C,0,-0.45263,-0.134377,-0.766522\H,0,-4.086028,-0.547352,0.722629\
 H,0,0.332703,-0.111776,-1.521768\C,0,1.115166,1.430657,0.672626\C,0,0.
 45263,0.134377,0.766522\H,0,0.561998,2.331699,0.905522\H,0,-0.332703,0
 .111776,1.521768\C,0,1.457223,-0.998723,0.982555\H,0,1.882127,-0.90424
 1,1.986471\H,0,0.944658,-1.961243,0.946268\C,0,2.397689,1.528359,0.123
 394\H,0,2.825979,2.512496,-0.031045\C,0,3.119734,0.42693,-0.248214\H,0
 ,4.086028,0.547352,-0.722629\C,0,2.592798,-0.959299,-0.042549\H,0,2.24
 6207,-1.358828,-1.004791\H,0,3.401603,-1.624548,0.271052\C,0,-1.115166
 ,-1.430657,-0.672626\H,0,-0.561998,-2.331699,-0.905522\C,0,-2.397689,-
 1.528359,-0.123394\H,0,-2.825979,-2.512496,0.031045\C,0,-1.457223,0.99
 8723,-0.982556\H,0,-0.944658,1.961243,-0.946268\H,0,-1.882127,0.904241
 ,-1.986471\C,0,-2.592798,0.959299,0.042549\H,0,-3.401603,1.624548,-0.2
 71052\H,0,-2.246207,1.358828,1.004791\\Version=ES64L-G16RevB.01\HF=-46
 6.7756198\S2=0.999032\S2-1=0.\S2A=0.488573\RMSD=5.949e-09\Dipole=-0.00
 03491,-0.0005728,-0.0008781\Quadrupole=1.0451495,1.4963862,-2.5415357,
 -2.0301644,-2.2755725,-0.2966837\PG=CI [X(C12H16)]\\@


 WOE UNTO THEM THAT CALL EVIL GOOD, AND GOOD EVIL      
 Job cpu time:       0 days  2 hours  6 minutes 35.1 seconds.
 Elapsed time:       0 days  0 hours  5 minutes 20.2 seconds.
 File lengths (MBytes):  RWF=    624 Int=      0 D2E=      0 Chk=     24 Scr=      1
 Normal termination of Gaussian 16 at Tue Aug  4 17:38:31 2020.
