 Entering Gaussian System, Link 0=g16
 Input=meso-TS_73_2_xp-Ger.com
 Output=meso-TS_73_2_xp-Ger.log
 Initial command:
 /scratch/scicomp/CentOS/7.3.1611/Haswell/software/Gaussian/g16/l1.exe "/scratch/bochen/cyclohexadiene-dimerization/wb97xd-def2tzvp/xp-pcm/meso/Gau-185170.inp" -scrdir="/scratch/bochen/cyclohexadiene-dimerization/wb97xd-def2tzvp/xp-pcm/meso/"
 Entering Link 1 = /scratch/scicomp/CentOS/7.3.1611/Haswell/software/Gaussian/g16/l1.exe PID=    185171.
  
 Copyright (c) 1988-2017, Gaussian, Inc.  All Rights Reserved.
  
 This is part of the Gaussian(R) 16 program.  It is based on
 the Gaussian(R) 09 system (copyright 2009, Gaussian, Inc.),
 the Gaussian(R) 03 system (copyright 2003, Gaussian, Inc.),
 the Gaussian(R) 98 system (copyright 1998, Gaussian, Inc.),
 the Gaussian(R) 94 system (copyright 1995, Gaussian, Inc.),
 the Gaussian 92(TM) system (copyright 1992, Gaussian, Inc.),
 the Gaussian 90(TM) system (copyright 1990, Gaussian, Inc.),
 the Gaussian 88(TM) system (copyright 1988, Gaussian, Inc.),
 the Gaussian 86(TM) system (copyright 1986, Carnegie Mellon
 University), and the Gaussian 82(TM) system (copyright 1983,
 Carnegie Mellon University). Gaussian is a federally registered
 trademark of Gaussian, Inc.
  
 This software contains proprietary and confidential information,
 including trade secrets, belonging to Gaussian, Inc.
  
 This software is provided under written license and may be
 used, copied, transmitted, or stored only in accord with that
 written license.
  
 The following legend is applicable only to US Government
 contracts under FAR:
  
                    RESTRICTED RIGHTS LEGEND
  
 Use, reproduction and disclosure by the US Government is
 subject to restrictions as set forth in subparagraphs (a)
 and (c) of the Commercial Computer Software - Restricted
 Rights clause in FAR 52.227-19.
  
 Gaussian, Inc.
 340 Quinnipiac St., Bldg. 40, Wallingford CT 06492
  
  
 ---------------------------------------------------------------
 Warning -- This program may not be used in any manner that
 competes with the business of Gaussian, Inc. or will provide
 assistance to any competitor of Gaussian, Inc.  The licensee
 of this program is prohibited from giving any competitor of
 Gaussian, Inc. access to this program.  By using this program,
 the user acknowledges that Gaussian, Inc. is engaged in the
 business of creating and licensing software in the field of
 computational chemistry and represents and warrants to the
 licensee that it is not a competitor of Gaussian, Inc. and that
 it will not use this program in any manner prohibited above.
 ---------------------------------------------------------------
  

 Cite this work as:
 Gaussian 16, Revision B.01,
 M. J. Frisch, G. W. Trucks, H. B. Schlegel, G. E. Scuseria, 
 M. A. Robb, J. R. Cheeseman, G. Scalmani, V. Barone, 
 G. A. Petersson, H. Nakatsuji, X. Li, M. Caricato, A. V. Marenich, 
 J. Bloino, B. G. Janesko, R. Gomperts, B. Mennucci, H. P. Hratchian, 
 J. V. Ortiz, A. F. Izmaylov, J. L. Sonnenberg, D. Williams-Young, 
 F. Ding, F. Lipparini, F. Egidi, J. Goings, B. Peng, A. Petrone, 
 T. Henderson, D. Ranasinghe, V. G. Zakrzewski, J. Gao, N. Rega, 
 G. Zheng, W. Liang, M. Hada, M. Ehara, K. Toyota, R. Fukuda, 
 J. Hasegawa, M. Ishida, T. Nakajima, Y. Honda, O. Kitao, H. Nakai, 
 T. Vreven, K. Throssell, J. A. Montgomery, Jr., J. E. Peralta, 
 F. Ogliaro, M. J. Bearpark, J. J. Heyd, E. N. Brothers, K. N. Kudin, 
 V. N. Staroverov, T. A. Keith, R. Kobayashi, J. Normand, 
 K. Raghavachari, A. P. Rendell, J. C. Burant, S. S. Iyengar, 
 J. Tomasi, M. Cossi, J. M. Millam, M. Klene, C. Adamo, R. Cammi, 
 J. W. Ochterski, R. L. Martin, K. Morokuma, O. Farkas, 
 J. B. Foresman, and D. J. Fox, Gaussian, Inc., Wallingford CT, 2016.
 
 ******************************************
 Gaussian 16:  ES64L-G16RevB.01 20-Dec-2017
                 3-Aug-2020 
 ******************************************
 %chk=meso-TS_73_2_xp-12.chk
 %nproc=24
 Will use up to   24 processors via shared memory.
 %mem=48GB
 ----------------------------------------------------------------------
 #p uwb97xd guess=mix def2tzvp # scrf=(iefpcm,solvent=Cyclohexane,read)
  nosym 6d 10f
 ----------------------------------------------------------------------
 1/38=1,40=2,172=1/1;
 2/12=2,15=1,17=6,18=5,40=1/2;
 3/5=44,7=101,8=22,11=2,25=1,30=1,70=2203,72=17,74=-58,116=2/1,2,3;
 4/13=-1/1;
 5/5=2,38=5,53=17/2;
 6/7=2,8=2,9=2,10=2,28=1/1;
 99/5=1,9=1/99;
 Leave Link    1 at Mon Aug  3 21:35:24 2020, MaxMem=  6442450944 cpu:               6.5 elap:               0.3
 (Enter /scratch/scicomp/CentOS/7.3.1611/Haswell/software/Gaussian/g16/l101.exe)
 -----------------------
 endo-2 xp-pcm for eta=3
 -----------------------
 Symbolic Z-matrix:
 Charge =  0 Multiplicity = 1
 6                    -3.12017  -0.43952   0.28019 
 6                    -0.808    -0.27048  -1.34917 
 1                    -4.03926  -0.51945   0.84905 
 1                     0.11797  -0.19676  -1.90663 
 6                     1.22127   1.43878   0.86557 
 6                     0.808     0.27048   1.34917 
 1                     0.63426   2.33717   1.01585 
 1                    -0.11797   0.19676   1.90663 
 6                     1.6359   -0.97299   1.19533 
 1                     2.23968  -1.08963   2.10486 
 1                     0.98763  -1.8493    1.1454 
 6                     2.48213   1.53502   0.128 
 1                     2.88292   2.51731  -0.09187 
 6                     3.12017   0.43952  -0.28019 
 1                     4.03926   0.51945  -0.84905 
 6                     2.55127  -0.93067  -0.03115 
 1                     1.99168  -1.23694  -0.92348 
 1                     3.35496  -1.66058   0.08187 
 6                    -1.22127  -1.43878  -0.86557 
 1                    -0.63426  -2.33717  -1.01585 
 6                    -2.48213  -1.53502  -0.128 
 1                    -2.88292  -2.51731   0.09187 
 6                    -1.6359    0.97299  -1.19533 
 1                    -0.98763   1.8493   -1.1454 
 1                    -2.23968   1.08963  -2.10486 
 6                    -2.55127   0.93067   0.03115 
 1                    -3.35496   1.66058  -0.08187 
 1                    -1.99168   1.23694   0.92348 
 
 ITRead=  0  0  0  0  0  0  0  0  0  0  0  0  0  0  0  0  0  0  0  0
 ITRead=  0  0  0  0  0  0  0  0
 MicOpt= -1 -1 -1 -1 -1 -1 -1 -1 -1 -1 -1 -1 -1 -1 -1 -1 -1 -1 -1 -1
 MicOpt= -1 -1 -1 -1 -1 -1 -1 -1
 NAtoms=     28 NQM=       28 NQMF=       0 NMMI=      0 NMMIF=      0
                NMic=       0 NMicF=      0.
                    Isotopes and Nuclear Properties:
 (Nuclear quadrupole moments (NQMom) in fm**2, nuclear magnetic moments (NMagM)
  in nuclear magnetons)

  Atom         1           2           3           4           5           6           7           8           9          10
 IAtWgt=          12          12           1           1          12          12           1           1          12           1
 AtmWgt=  12.0000000  12.0000000   1.0078250   1.0078250  12.0000000  12.0000000   1.0078250   1.0078250  12.0000000   1.0078250
 NucSpn=           0           0           1           1           0           0           1           1           0           1
 AtZEff=  -0.0000000  -0.0000000  -0.0000000  -0.0000000  -0.0000000  -0.0000000  -0.0000000  -0.0000000  -0.0000000  -0.0000000
 NQMom=    0.0000000   0.0000000   0.0000000   0.0000000   0.0000000   0.0000000   0.0000000   0.0000000   0.0000000   0.0000000
 NMagM=    0.0000000   0.0000000   2.7928460   2.7928460   0.0000000   0.0000000   2.7928460   2.7928460   0.0000000   2.7928460
 AtZNuc=   6.0000000   6.0000000   1.0000000   1.0000000   6.0000000   6.0000000   1.0000000   1.0000000   6.0000000   1.0000000

  Atom        11          12          13          14          15          16          17          18          19          20
 IAtWgt=           1          12           1          12           1          12           1           1          12           1
 AtmWgt=   1.0078250  12.0000000   1.0078250  12.0000000   1.0078250  12.0000000   1.0078250   1.0078250  12.0000000   1.0078250
 NucSpn=           1           0           1           0           1           0           1           1           0           1
 AtZEff=  -0.0000000  -0.0000000  -0.0000000  -0.0000000  -0.0000000  -0.0000000  -0.0000000  -0.0000000  -0.0000000  -0.0000000
 NQMom=    0.0000000   0.0000000   0.0000000   0.0000000   0.0000000   0.0000000   0.0000000   0.0000000   0.0000000   0.0000000
 NMagM=    2.7928460   0.0000000   2.7928460   0.0000000   2.7928460   0.0000000   2.7928460   2.7928460   0.0000000   2.7928460
 AtZNuc=   1.0000000   6.0000000   1.0000000   6.0000000   1.0000000   6.0000000   1.0000000   1.0000000   6.0000000   1.0000000

  Atom        21          22          23          24          25          26          27          28
 IAtWgt=          12           1          12           1           1          12           1           1
 AtmWgt=  12.0000000   1.0078250  12.0000000   1.0078250   1.0078250  12.0000000   1.0078250   1.0078250
 NucSpn=           0           1           0           1           1           0           1           1
 AtZEff=  -0.0000000  -0.0000000  -0.0000000  -0.0000000  -0.0000000  -0.0000000  -0.0000000  -0.0000000
 NQMom=    0.0000000   0.0000000   0.0000000   0.0000000   0.0000000   0.0000000   0.0000000   0.0000000
 NMagM=    0.0000000   2.7928460   0.0000000   2.7928460   2.7928460   0.0000000   2.7928460   2.7928460
 AtZNuc=   6.0000000   1.0000000   6.0000000   1.0000000   1.0000000   6.0000000   1.0000000   1.0000000
 Leave Link  101 at Mon Aug  3 21:35:24 2020, MaxMem=  6442450944 cpu:               2.4 elap:               0.1
 (Enter /scratch/scicomp/CentOS/7.3.1611/Haswell/software/Gaussian/g16/l202.exe)
                          Input orientation:                          
 ---------------------------------------------------------------------
 Center     Atomic      Atomic             Coordinates (Angstroms)
 Number     Number       Type             X           Y           Z
 ---------------------------------------------------------------------
      1          6           0       -3.120165   -0.439520    0.280190
      2          6           0       -0.807998   -0.270483   -1.349166
      3          1           0       -4.039260   -0.519446    0.849052
      4          1           0        0.117969   -0.196755   -1.906627
      5          6           0        1.221266    1.438778    0.865571
      6          6           0        0.807998    0.270483    1.349166
      7          1           0        0.634256    2.337167    1.015854
      8          1           0       -0.117969    0.196755    1.906627
      9          6           0        1.635901   -0.972988    1.195334
     10          1           0        2.239675   -1.089626    2.104856
     11          1           0        0.987632   -1.849296    1.145396
     12          6           0        2.482134    1.535015    0.127997
     13          1           0        2.882920    2.517315   -0.091872
     14          6           0        3.120165    0.439520   -0.280190
     15          1           0        4.039260    0.519446   -0.849052
     16          6           0        2.551272   -0.930669   -0.031151
     17          1           0        1.991682   -1.236938   -0.923478
     18          1           0        3.354963   -1.660578    0.081874
     19          6           0       -1.221266   -1.438778   -0.865571
     20          1           0       -0.634256   -2.337167   -1.015854
     21          6           0       -2.482134   -1.535015   -0.127997
     22          1           0       -2.882920   -2.517315    0.091872
     23          6           0       -1.635901    0.972988   -1.195334
     24          1           0       -0.987632    1.849296   -1.145396
     25          1           0       -2.239675    1.089626   -2.104856
     26          6           0       -2.551272    0.930669    0.031151
     27          1           0       -3.354963    1.660578   -0.081874
     28          1           0       -1.991682    1.236938    0.923479
 ---------------------------------------------------------------------
                    Distance matrix (angstroms):
                    1          2          3          4          5
     1  C    0.000000
     2  C    2.833636   0.000000
     3  H    1.083849   3.916018   0.000000
     4  H    3.914922   1.083334   4.998045   0.000000
     5  C    4.766413   3.456088   5.613203   3.402545   0.000000
     6  C    4.132466   3.191408   4.936599   3.360750   1.330251
     7  H    4.727248   3.804373   5.479946   3.902334   1.083637
     8  H    3.473230   3.360750   4.124067   3.840758   2.102372
     9  C    4.872601   3.597310   5.703776   3.539607   2.469267
    10  H    5.699116   4.678629   6.428621   4.625024   2.994296
    11  H    4.428323   3.455398   5.208259   3.577995   3.308220
    12  C    5.942029   4.033212   6.875268   3.567632   1.463921
    13  H    6.702114   4.793275   7.617338   4.278372   2.200235
    14  C    6.326805   4.132466   7.311099   3.473230   2.432509
    15  H    7.311099   4.936599   8.320177   4.124067   3.424353
    16  C    5.701172   3.668474   6.661755   3.158639   2.861347
    17  H    5.311843   2.992232   6.326841   2.357830   3.309636
    18  H    6.592237   4.616328   7.520989   4.071246   3.843547
    19  C    2.432509   1.330251   3.424353   2.102372   4.152486
    20  H    3.385342   2.100587   4.286728   2.437352   4.608740
    21  C    1.331844   2.427556   2.100154   3.422718   4.852401
    22  H    2.099757   3.380850   2.429388   4.287695   5.752706
    23  C    2.524953   1.501768   3.490417   2.224926   3.553547
    24  H    3.437829   2.137113   4.347550   2.447070   3.015252
    25  H    2.966816   2.114394   3.814865   2.693057   4.574216
    26  C    1.504353   2.527260   2.232914   3.485816   3.896983
    27  H    2.143976   3.438322   2.467264   4.340584   4.678538
    28  H    2.120803   2.972935   2.698703   3.809935   3.219802
                    6          7          8          9         10
     6  C    0.000000
     7  H    2.100587   0.000000
     8  H    1.083334   2.437352   0.000000
     9  C    1.501768   3.463038   2.224926   0.000000
    10  H    2.114394   3.937792   2.693057   1.097897   0.000000
    11  H    2.137113   4.203347   2.447070   1.091175   1.750792
    12  C    2.427556   2.201452   3.422718   2.854014   3.294768
    13  H    3.380850   2.513165   4.287695   3.923541   4.271932
    14  C    2.833636   3.385342   3.914922   2.524953   2.966816
    15  H    3.916018   4.286728   4.998045   3.490417   3.814865
    16  C    2.527260   3.930639   3.485816   1.531000   2.164460
    17  H    2.972934   4.286938   3.809934   2.164628   3.042040
    18  H    3.438322   4.925092   4.340584   2.160497   2.379561
    19  C    3.456088   4.608740   3.402545   3.553547   4.574216
    20  H    3.804373   5.252272   3.902334   3.450210   4.422066
    21  C    4.033212   5.100400   3.567632   4.361799   5.242088
    22  H    4.793275   6.065498   4.278372   4.901257   5.686069
    23  C    3.597310   3.450210   3.539607   4.495198   5.492333
    24  H    3.455398   2.745822   3.577995   4.508573   5.442142
    25  H    4.678629   4.422066   4.625024   5.492333   6.521916
    26  C    3.668474   3.618766   3.158639   4.744644   5.597769
    27  H    4.616328   4.192451   4.071246   5.785815   6.606465
    28  H    2.992232   2.848611   2.357830   4.256411   4.971210
                   11         12         13         14         15
    11  H    0.000000
    12  C    3.836952   0.000000
    13  H    4.918357   1.083460   0.000000
    14  C    3.437829   1.331844   2.099757   0.000000
    15  H    4.347550   2.100154   2.429388   1.083849   0.000000
    16  C    2.161737   2.471782   3.464429   1.504353   2.232914
    17  H    2.379777   3.004974   3.947188   2.120803   2.698703
    18  H    2.602105   3.312970   4.208064   2.143976   2.467264
    19  C    3.015252   4.852401   5.752706   4.766413   5.613203
    20  H    2.745822   5.100400   6.065498   4.727248   5.479946
    21  C    3.709391   5.842480   6.723577   5.942029   6.875268
    22  H    4.066612   6.723577   7.656773   6.702114   7.617338
    23  C    4.508573   4.361799   4.901257   4.872601   5.703776
    24  H    4.777968   3.709391   4.066612   4.428323   5.208259
    25  H    5.442142   5.242088   5.686069   5.699116   6.428621
    26  C    4.636118   5.070482   5.662422   5.701172   6.661755
    27  H    5.716952   5.842218   6.296450   6.592237   7.520989
    28  H    4.295393   4.553754   5.141211   5.311843   6.326841
                   16         17         18         19         20
    16  C    0.000000
    17  H    1.096900   0.000000
    18  H    1.091541   1.746064   0.000000
    19  C    3.896983   3.219802   4.678538   0.000000
    20  H    3.618766   2.848612   4.192451   1.083637   0.000000
    21  C    5.070482   4.553753   5.842218   1.463921   2.201452
    22  H    5.662422   5.141211   6.296450   2.200235   2.513165
    23  C    4.744644   4.256411   5.785815   2.469267   3.463038
    24  H    4.636118   4.295393   5.716952   3.308220   4.203347
    25  H    5.597769   4.971211   6.606465   2.994296   3.937792
    26  C    5.431797   5.123306   6.449864   2.861347   3.930639
    27  H    6.449864   6.139260   7.488658   3.843547   4.925092
    28  H    5.123307   5.039693   6.139260   3.309637   4.286939
                   21         22         23         24         25
    21  C    0.000000
    22  H    1.083460   0.000000
    23  C    2.854014   3.923541   0.000000
    24  H    3.836952   4.918357   1.091175   0.000000
    25  H    3.294768   4.271932   1.097897   1.750792   0.000000
    26  C    2.471782   3.464429   1.531000   2.161737   2.164460
    27  H    3.312970   4.208064   2.160497   2.602105   2.379561
    28  H    3.004974   3.947188   2.164629   2.379778   3.042041
                   26         27         28
    26  C    0.000000
    27  H    1.091541   0.000000
    28  H    1.096901   1.746064   0.000000
 Symmetry turned off by external request.
 Stoichiometry    C12H16
 Framework group  CI[X(C12H16)]
 Deg. of freedom    39
 Full point group                 CI      NOp   2
 Rotational constants (GHZ):           1.6858419           0.5750756           0.5283298
 Leave Link  202 at Mon Aug  3 21:35:24 2020, MaxMem=  6442450944 cpu:               0.3 elap:               0.0
 (Enter /scratch/scicomp/CentOS/7.3.1611/Haswell/software/Gaussian/g16/l301.exe)
 Standard basis: def2TZVP (6D, 10F)
 Ernie: Thresh=  0.10000D-02 Tol=  0.10000D-05 Strict=F.
   528 basis functions,   740 primitive gaussians,   528 cartesian basis functions
    44 alpha electrons       44 beta electrons
       nuclear repulsion energy       670.0479989913 Hartrees.
 IExCor= 4639 DFT=T Ex+Corr=wB97XD ExCW=0 ScaHFX=  1.000000
 ScaDFX=  1.000000  1.000000  1.000000  1.000000 ScalE2=  1.000000  1.000000
 IRadAn=      5 IRanWt=     -1 IRanGd=            0 ICorTp=0 IEmpDi=121
 HFx  wShort=  0.000000 wLong=  0.200000 cFull=  0.222036 cShort=  0.000000 cLong=  0.777964
 DFx  wShort=  0.000000 wLong=  0.200000 cFull=  0.000000 cShort=  0.000000 cLong=  1.000000
 NAtoms=   28 NActive=   28 NUniq=   28 SFac= 1.00D+00 NAtFMM=   60 NAOKFM=F Big=F
 Integral buffers will be    131072 words long.
 Raffenetti 2 integral format.
 Two-electron integral symmetry is turned off.
 R6Disp:  Grimme-D2 Dispersion energy=       -0.0211484396 Hartrees.
 Nuclear repulsion after empirical dispersion term =      670.0268505517 Hartrees.
 Using the following non-standard input for PCM:
 qrep pcmdoc geomview  nodis nocav g03defaults tsare=0.075
 Warning! Using old PCM defaults because the g03defaults keyword was found.
 These settings can be overridden by following keywords.
 nsfe=28
 NVESolv=36  SolvMW=84.1595   Rsolv=2.815
 eps=2.0165 RhoS=0.778099999999998
 --- end of non-standard input.
 Reading user-defined spheres from input:
 ISph  on   Nord    Re0     Alpha      Xe            Ye            Ze
 --- end of user-defined spheres data.
 ------------------------------------------------------------------------------
 Polarizable Continuum Model (PCM)
 =================================
 Model                : PCM.
 Atomic radii         : UA0 (Simple United Atom Topological Model).
 Polarization charges : Total charges.
 Charge compensation  : None.
 Solution method      : On-the-fly selection.
 Cavity type          : SES (Solvent Excluding Surface) (Alpha=1.000).
 Cavity algorithm     : GePol (RMin=0.200 OFac=0.890).
                        User-defined sphere list used, NSphG=   28.
                        Tesserae with average area of 0.075 Ang**2.
                        Smoothing algorithm: None.
                        Polarization charges: point-like.
                        Self-potential: constant (ISelfS= 1).
                        Self-field    : global E.n sum rule (ISelfD= 3).
 Solvent              : CycloHexane, Eps=   2.016500 Eps(inf)=   2.035188
                        RSolv=   2.815000 Ang.
 ------------------------------------------------------------------------------
 GePol: Number of generator spheres                  =      28
 GePol: Total number of spheres                      =     202
 GePol: Number of exposed spheres                    =     136 ( 67.33%)
 GePol: Number of tesserae                           =    4738
 GePol: Average area of tesserae                     =       0.05 Ang**2
 GePol: Minimum area of tessera                      =   0.10D-02 Ang**2
 GePol: Maximum area of tessera                      =    0.12636 Ang**2
 GePol: Number of small tesserae                     =       0
 GePol: Fraction of small tesserae (<1% of avg)      =       0.00%
 GePol: Total count of vertices                      =   16806
 GePol: Maximum number of vertices in a tessera      =       7
 GePol: Cavity surface area                          =    224.704 Ang**2
 GePol: Cavity volume                                =    257.354 Ang**3
 Leave Link  301 at Mon Aug  3 21:35:25 2020, MaxMem=  6442450944 cpu:               8.3 elap:               0.4
 (Enter /scratch/scicomp/CentOS/7.3.1611/Haswell/software/Gaussian/g16/l302.exe)
 NPDir=0 NMtPBC=     1 NCelOv=     1 NCel=       1 NClECP=     1 NCelD=      1
         NCelK=      1 NCelE2=     1 NClLst=     1 CellRange=     0.0.
 One-electron integrals computed using PRISM.
   1 Symmetry operations used in ECPInt.
 ECPInt:  NShTT=   19306 NPrTT=   56928 LenC2=   18450 LenP2D=   41714.
 LDataN:  DoStor=T MaxTD1= 6 Len=  172
 NBasis=   528 RedAO= T EigKep=  2.00D-05  NBF=   528
 NBsUse=   528 1.00D-06 EigRej= -1.00D+00 NBFU=   528
 Precomputing XC quadrature grid using
 IXCGrd= 4 IRadAn=           5 IRanWt=          -1 IRanGd=           0 AccXCQ= 0.00D+00.
 Generated NRdTot=       0 NPtTot=           0 NUsed=           0 NTot=          32
 NSgBfM=   526   526   526   526   526 MxSgAt=    28 MxSgA2=    28.
 Leave Link  302 at Mon Aug  3 21:35:25 2020, MaxMem=  6442450944 cpu:              12.7 elap:               0.6
 (Enter /scratch/scicomp/CentOS/7.3.1611/Haswell/software/Gaussian/g16/l303.exe)
 DipDrv:  MaxL=1.
 Leave Link  303 at Mon Aug  3 21:35:26 2020, MaxMem=  6442450944 cpu:               1.5 elap:               0.1
 (Enter /scratch/scicomp/CentOS/7.3.1611/Haswell/software/Gaussian/g16/l401.exe)
 ExpMin= 9.52D-02 ExpMax= 1.36D+04 ExpMxC= 4.63D+02 IAcc=3 IRadAn=         5 AccDes= 0.00D+00
 Harris functional with IExCor= 4639 and IRadAn=       5 diagonalized for initial guess.
 HarFok:  IExCor= 4639 AccDes= 0.00D+00 IRadAn=         5 IDoV= 1 UseB2=F ITyADJ=14
 ICtDFT=  3500011 ScaDFX=  1.000000  1.000000  1.000000  1.000000
 FoFCou: FMM=F IPFlag=           0 FMFlag=      100000 FMFlg1=           0
         NFxFlg=           0 DoJE=T BraDBF=F KetDBF=T FulRan=T
         wScrn=  0.000000 ICntrl=       500 IOpCl=  0 I1Cent=   200000004 NGrid=           0
         NMat0=    1 NMatS0=      1 NMatT0=    0 NMatD0=    1 NMtDS0=    0 NMtDT0=    0
 Symmetry not used in FoFCou.
 Harris En= -444.660638443282    
 JPrj=0 DoOrth=F DoCkMO=T.
 Mixing orbitals, IMix= 1 IMixAn=  0 NRI=1 NE=   44 Coef=  7.07106781D-01  7.07106781D-01
 Mixing orbitals, IMix= 1 IMixAn=  0 NRI=1 NE=   44 Coef= -7.07106781D-01  7.07106781D-01
 Initial guess <Sx>= 0.0000 <Sy>= 0.0000 <Sz>= 0.0000 <S**2>= 1.0000 S= 0.6180
 Leave Link  401 at Mon Aug  3 21:35:28 2020, MaxMem=  6442450944 cpu:              48.3 elap:               2.1
 (Enter /scratch/scicomp/CentOS/7.3.1611/Haswell/software/Gaussian/g16/l502.exe)
 Two-electron integral symmetry not used.
 UHF open shell SCF:
 Using DIIS extrapolation, IDIIS=  1040.
 NGot=  6442450944 LenX=  6441877030 LenY=  6441597718
 Requested convergence on RMS density matrix=1.00D-08 within 128 cycles.
 Requested convergence on MAX density matrix=1.00D-06.
 Requested convergence on             energy=1.00D-06.
 No special actions if energy rises.
 Fock matrices will be formed incrementally for  20 cycles.

 Cycle   1  Pass 1  IDiag  1:
 FoFJK:  IHMeth= 1 ICntrl=       0 DoSepK=T KAlg= 0 I1Cent=           0 FoldK=F
 IRaf=         1 NMat=       1 IRICut=       1 DoRegI=T DoRafI=F ISym2E= 0 IDoP0=0 IntGTp=1.
 FoFCou: FMM=F IPFlag=           0 FMFlag=      100000 FMFlg1=           0
         NFxFlg=           0 DoJE=T BraDBF=F KetDBF=F FulRan=T
         wScrn=  0.000000 ICntrl=       500 IOpCl=  0 I1Cent=           0 NGrid=           0
         NMat0=    1 NMatS0=      1 NMatT0=    0 NMatD0=    1 NMtDS0=    0 NMtDT0=    0
 Symmetry not used in FoFCou.
 Inv3:  Mode=1 IEnd=    67345932.
 Iteration    1 A*A^-1 deviation from unit magnitude is 4.11D-15 for   4169.
 Iteration    1 A*A^-1 deviation from orthogonality  is 2.60D-15 for   3080   3072.
 Iteration    1 A^-1*A deviation from unit magnitude is 3.66D-15 for   4169.
 Iteration    1 A^-1*A deviation from orthogonality  is 1.89D-15 for   3080   3072.
 E= -466.564529450660    
 DIIS: error= 4.94D-02 at cycle   1 NSaved=   1.
 NSaved= 1 IEnMin= 1 EnMin= -466.564529450660     IErMin= 1 ErrMin= 4.94D-02
 ErrMax= 4.94D-02  0.00D+00 EMaxC= 1.00D-01 BMatC= 4.12D+00 BMatP= 4.12D+00
 IDIUse=3 WtCom= 5.06D-01 WtEn= 4.94D-01
 Coeff-Com:  0.100D+01
 Coeff-En:   0.100D+01
 Coeff:      0.100D+01
 Gap=     0.179 Goal=   None    Shift=    0.000
 Gap=     0.179 Goal=   None    Shift=    0.000
 GapD=    0.179 DampG=1.000 DampE=0.500 DampFc=0.5000 IDamp=-1.
 Damping current iteration by 5.00D-01
 RMSDP=1.71D-03 MaxDP=9.33D-02              OVMax= 3.64D-01

 Cycle   2  Pass 1  IDiag  1:
 RMSU=  8.18D-04    CP:  9.61D-01
 E= -466.679667300447     Delta-E=       -0.115137849787 Rises=F Damp=T
 DIIS: error= 2.36D-02 at cycle   2 NSaved=   2.
 NSaved= 2 IEnMin= 2 EnMin= -466.679667300447     IErMin= 2 ErrMin= 2.36D-02
 ErrMax= 2.36D-02  0.00D+00 EMaxC= 1.00D-01 BMatC= 9.37D-01 BMatP= 4.12D+00
 IDIUse=3 WtCom= 7.64D-01 WtEn= 2.36D-01
 Coeff-Com: -0.870D+00 0.187D+01
 Coeff-En:   0.000D+00 0.100D+01
 Coeff:     -0.665D+00 0.166D+01
 Gap=     0.284 Goal=   None    Shift=    0.000
 Gap=     0.284 Goal=   None    Shift=    0.000
 RMSDP=1.22D-03 MaxDP=4.93D-02 DE=-1.15D-01 OVMax= 1.40D-01

 Cycle   3  Pass 1  IDiag  1:
 RMSU=  5.90D-04    CP:  9.04D-01  2.23D+00
 E= -466.830922574633     Delta-E=       -0.151255274187 Rises=F Damp=F
 DIIS: error= 7.79D-03 at cycle   3 NSaved=   3.
 NSaved= 3 IEnMin= 3 EnMin= -466.830922574633     IErMin= 3 ErrMin= 7.79D-03
 ErrMax= 7.79D-03  0.00D+00 EMaxC= 1.00D-01 BMatC= 2.39D-02 BMatP= 9.37D-01
 IDIUse=3 WtCom= 9.22D-01 WtEn= 7.79D-02
 Coeff-Com: -0.316D+00 0.676D+00 0.639D+00
 Coeff-En:   0.000D+00 0.000D+00 0.100D+01
 Coeff:     -0.291D+00 0.624D+00 0.668D+00
 Gap=     0.307 Goal=   None    Shift=    0.000
 Gap=     0.307 Goal=   None    Shift=    0.000
 RMSDP=2.06D-04 MaxDP=1.02D-02 DE=-1.51D-01 OVMax= 6.30D-02

 Cycle   4  Pass 1  IDiag  1:
 RMSU=  1.89D-04    CP:  8.97D-01  2.31D+00  1.01D+00
 E= -466.841510408622     Delta-E=       -0.010587833989 Rises=F Damp=F
 DIIS: error= 5.08D-03 at cycle   4 NSaved=   4.
 NSaved= 4 IEnMin= 4 EnMin= -466.841510408622     IErMin= 4 ErrMin= 5.08D-03
 ErrMax= 5.08D-03  0.00D+00 EMaxC= 1.00D-01 BMatC= 2.03D-03 BMatP= 2.39D-02
 IDIUse=3 WtCom= 9.49D-01 WtEn= 5.08D-02
 Coeff-Com:  0.152D+00-0.324D+00-0.780D-01 0.125D+01
 Coeff-En:   0.000D+00 0.000D+00 0.000D+00 0.100D+01
 Coeff:      0.144D+00-0.308D+00-0.740D-01 0.124D+01
 Gap=     0.318 Goal=   None    Shift=    0.000
 Gap=     0.318 Goal=   None    Shift=    0.000
 RMSDP=2.11D-04 MaxDP=1.20D-02 DE=-1.06D-02 OVMax= 7.61D-02

 Cycle   5  Pass 1  IDiag  1:
 RMSU=  8.24D-05    CP:  8.90D-01  2.37D+00  1.24D+00  1.65D+00
 E= -466.846059772117     Delta-E=       -0.004549363495 Rises=F Damp=F
 DIIS: error= 2.19D-03 at cycle   5 NSaved=   5.
 NSaved= 5 IEnMin= 5 EnMin= -466.846059772117     IErMin= 5 ErrMin= 2.19D-03
 ErrMax= 2.19D-03  0.00D+00 EMaxC= 1.00D-01 BMatC= 7.68D-04 BMatP= 2.03D-03
 IDIUse=3 WtCom= 9.78D-01 WtEn= 2.19D-02
 Coeff-Com:  0.529D-01-0.114D+00-0.577D-01 0.289D+00 0.829D+00
 Coeff-En:   0.000D+00 0.000D+00 0.000D+00 0.000D+00 0.100D+01
 Coeff:      0.517D-01-0.111D+00-0.565D-01 0.283D+00 0.833D+00
 Gap=     0.319 Goal=   None    Shift=    0.000
 Gap=     0.319 Goal=   None    Shift=    0.000
 RMSDP=7.18D-05 MaxDP=2.83D-03 DE=-4.55D-03 OVMax= 2.65D-02

 Cycle   6  Pass 1  IDiag  1:
 RMSU=  3.07D-05    CP:  8.89D-01  2.38D+00  1.28D+00  1.91D+00  1.41D+00
 E= -466.847362534503     Delta-E=       -0.001302762385 Rises=F Damp=F
 DIIS: error= 1.56D-03 at cycle   6 NSaved=   6.
 NSaved= 6 IEnMin= 6 EnMin= -466.847362534503     IErMin= 6 ErrMin= 1.56D-03
 ErrMax= 1.56D-03  0.00D+00 EMaxC= 1.00D-01 BMatC= 5.07D-04 BMatP= 7.68D-04
 IDIUse=3 WtCom= 9.84D-01 WtEn= 1.56D-02
 Coeff-Com: -0.855D-01 0.183D+00 0.558D-01-0.638D+00 0.109D+00 0.138D+01
 Coeff-En:   0.000D+00 0.000D+00 0.000D+00 0.000D+00 0.000D+00 0.100D+01
 Coeff:     -0.841D-01 0.180D+00 0.549D-01-0.628D+00 0.108D+00 0.137D+01
 Gap=     0.316 Goal=   None    Shift=    0.000
 Gap=     0.316 Goal=   None    Shift=    0.000
 RMSDP=9.85D-05 MaxDP=3.96D-03 DE=-1.30D-03 OVMax= 3.68D-02

 Cycle   7  Pass 1  IDiag  1:
 RMSU=  3.01D-05    CP:  8.87D-01  2.38D+00  1.31D+00  2.20D+00  2.14D+00
                    CP:  2.32D+00
 E= -466.848943120851     Delta-E=       -0.001580586349 Rises=F Damp=F
 DIIS: error= 9.97D-04 at cycle   7 NSaved=   7.
 NSaved= 7 IEnMin= 7 EnMin= -466.848943120851     IErMin= 7 ErrMin= 9.97D-04
 ErrMax= 9.97D-04  0.00D+00 EMaxC= 1.00D-01 BMatC= 2.52D-04 BMatP= 5.07D-04
 IDIUse=3 WtCom= 9.90D-01 WtEn= 9.97D-03
 Coeff-Com: -0.236D-01 0.510D-01 0.393D-01 0.108D-02-0.784D+00-0.354D+00
 Coeff-Com:  0.207D+01
 Coeff-En:   0.000D+00 0.000D+00 0.000D+00 0.000D+00 0.000D+00 0.000D+00
 Coeff-En:   0.100D+01
 Coeff:     -0.233D-01 0.505D-01 0.390D-01 0.107D-02-0.776D+00-0.351D+00
 Coeff:      0.206D+01
 Gap=     0.316 Goal=   None    Shift=    0.000
 Gap=     0.316 Goal=   None    Shift=    0.000
 RMSDP=1.33D-04 MaxDP=6.24D-03 DE=-1.58D-03 OVMax= 4.94D-02

 Cycle   8  Pass 1  IDiag  1:
 RMSU=  5.75D-05    CP:  8.85D-01  2.37D+00  1.35D+00  2.51D+00  3.00D+00
                    CP:  3.00D+00  2.63D+00
 E= -466.850259347608     Delta-E=       -0.001316226757 Rises=F Damp=F
 DIIS: error= 3.53D-04 at cycle   8 NSaved=   8.
 NSaved= 8 IEnMin= 8 EnMin= -466.850259347608     IErMin= 8 ErrMin= 3.53D-04
 ErrMax= 3.53D-04  0.00D+00 EMaxC= 1.00D-01 BMatC= 5.60D-05 BMatP= 2.52D-04
 IDIUse=3 WtCom= 9.96D-01 WtEn= 3.53D-03
 Coeff-Com:  0.245D-01-0.527D-01-0.640D-02 0.258D+00-0.262D+00-0.635D+00
 Coeff-Com:  0.581D+00 0.109D+01
 Coeff-En:   0.000D+00 0.000D+00 0.000D+00 0.000D+00 0.000D+00 0.000D+00
 Coeff-En:   0.000D+00 0.100D+01
 Coeff:      0.244D-01-0.525D-01-0.638D-02 0.257D+00-0.261D+00-0.633D+00
 Coeff:      0.579D+00 0.109D+01
 Gap=     0.318 Goal=   None    Shift=    0.000
 Gap=     0.318 Goal=   None    Shift=    0.000
 RMSDP=5.75D-05 MaxDP=2.76D-03 DE=-1.32D-03 OVMax= 2.10D-02

 Cycle   9  Pass 1  IDiag  1:
 RMSU=  3.28D-05    CP:  8.84D-01  2.37D+00  1.36D+00  2.61D+00  3.00D+00
                    CP:  3.00D+00  3.00D+00  1.63D+00
 E= -466.850467041786     Delta-E=       -0.000207694178 Rises=F Damp=F
 DIIS: error= 1.12D-04 at cycle   9 NSaved=   9.
 NSaved= 9 IEnMin= 9 EnMin= -466.850467041786     IErMin= 9 ErrMin= 1.12D-04
 ErrMax= 1.12D-04  0.00D+00 EMaxC= 1.00D-01 BMatC= 8.03D-06 BMatP= 5.60D-05
 IDIUse=3 WtCom= 9.99D-01 WtEn= 1.12D-03
 Coeff-Com:  0.116D-01-0.249D-01-0.763D-02 0.805D-01 0.353D-01-0.141D+00
 Coeff-Com: -0.130D+00 0.272D+00 0.904D+00
 Coeff-En:   0.000D+00 0.000D+00 0.000D+00 0.000D+00 0.000D+00 0.000D+00
 Coeff-En:   0.000D+00 0.000D+00 0.100D+01
 Coeff:      0.115D-01-0.248D-01-0.762D-02 0.804D-01 0.353D-01-0.141D+00
 Coeff:     -0.130D+00 0.271D+00 0.904D+00
 Gap=     0.318 Goal=   None    Shift=    0.000
 Gap=     0.318 Goal=   None    Shift=    0.000
 RMSDP=1.45D-05 MaxDP=6.71D-04 DE=-2.08D-04 OVMax= 5.19D-03

 Cycle  10  Pass 1  IDiag  1:
 RMSU=  5.11D-06    CP:  8.84D-01  2.37D+00  1.37D+00  2.63D+00  3.00D+00
                    CP:  3.00D+00  3.00D+00  1.77D+00  1.29D+00
 E= -466.850482001582     Delta-E=       -0.000014959796 Rises=F Damp=F
 DIIS: error= 4.72D-05 at cycle  10 NSaved=  10.
 NSaved=10 IEnMin=10 EnMin= -466.850482001582     IErMin=10 ErrMin= 4.72D-05
 ErrMax= 4.72D-05  0.00D+00 EMaxC= 1.00D-01 BMatC= 1.22D-06 BMatP= 8.03D-06
 IDIUse=1 WtCom= 1.00D+00 WtEn= 0.00D+00
 Coeff-Com: -0.202D-02 0.436D-02-0.230D-03-0.310D-01 0.453D-01 0.839D-01
 Coeff-Com: -0.106D+00-0.184D+00 0.162D+00 0.103D+01
 Coeff:     -0.202D-02 0.436D-02-0.230D-03-0.310D-01 0.453D-01 0.839D-01
 Coeff:     -0.106D+00-0.184D+00 0.162D+00 0.103D+01
 Gap=     0.317 Goal=   None    Shift=    0.000
 Gap=     0.317 Goal=   None    Shift=    0.000
 RMSDP=6.19D-06 MaxDP=2.80D-04 DE=-1.50D-05 OVMax= 2.23D-03

 Cycle  11  Pass 1  IDiag  1:
 RMSU=  1.93D-06    CP:  8.84D-01  2.37D+00  1.37D+00  2.64D+00  3.00D+00
                    CP:  3.00D+00  3.00D+00  1.82D+00  1.41D+00  1.36D+00
 E= -466.850483833914     Delta-E=       -0.000001832332 Rises=F Damp=F
 DIIS: error= 1.66D-05 at cycle  11 NSaved=  11.
 NSaved=11 IEnMin=11 EnMin= -466.850483833914     IErMin=11 ErrMin= 1.66D-05
 ErrMax= 1.66D-05  0.00D+00 EMaxC= 1.00D-01 BMatC= 2.28D-07 BMatP= 1.22D-06
 IDIUse=1 WtCom= 1.00D+00 WtEn= 0.00D+00
 Coeff-Com: -0.117D-02 0.253D-02 0.197D-03-0.141D-01 0.137D-01 0.343D-01
 Coeff-Com: -0.271D-01-0.783D-01 0.318D-02 0.359D+00 0.708D+00
 Coeff:     -0.117D-02 0.253D-02 0.197D-03-0.141D-01 0.137D-01 0.343D-01
 Coeff:     -0.271D-01-0.783D-01 0.318D-02 0.359D+00 0.708D+00
 Gap=     0.317 Goal=   None    Shift=    0.000
 Gap=     0.317 Goal=   None    Shift=    0.000
 RMSDP=7.74D-07 MaxDP=4.03D-05 DE=-1.83D-06 OVMax= 1.46D-04

 Cycle  12  Pass 1  IDiag  1:
 RMSU=  6.14D-07    CP:  8.84D-01  2.37D+00  1.37D+00  2.64D+00  3.00D+00
                    CP:  3.00D+00  3.00D+00  1.82D+00  1.41D+00  1.37D+00
                    CP:  1.18D+00
 E= -466.850483957539     Delta-E=       -0.000000123625 Rises=F Damp=F
 DIIS: error= 1.14D-05 at cycle  12 NSaved=  12.
 NSaved=12 IEnMin=12 EnMin= -466.850483957539     IErMin=12 ErrMin= 1.14D-05
 ErrMax= 1.14D-05  0.00D+00 EMaxC= 1.00D-01 BMatC= 6.21D-08 BMatP= 2.28D-07
 IDIUse=1 WtCom= 1.00D+00 WtEn= 0.00D+00
 Coeff-Com:  0.508D-03-0.110D-02-0.390D-04 0.738D-02-0.921D-02-0.197D-01
 Coeff-Com:  0.248D-01 0.426D-01-0.441D-01-0.259D+00 0.176D+00 0.108D+01
 Coeff:      0.508D-03-0.110D-02-0.390D-04 0.738D-02-0.921D-02-0.197D-01
 Coeff:      0.248D-01 0.426D-01-0.441D-01-0.259D+00 0.176D+00 0.108D+01
 Gap=     0.317 Goal=   None    Shift=    0.000
 Gap=     0.317 Goal=   None    Shift=    0.000
 RMSDP=6.92D-07 MaxDP=2.58D-05 DE=-1.24D-07 OVMax= 1.42D-04

 Cycle  13  Pass 1  IDiag  1:
 RMSU=  3.81D-07    CP:  8.84D-01  2.37D+00  1.37D+00  2.64D+00  3.00D+00
                    CP:  3.00D+00  3.00D+00  1.82D+00  1.41D+00  1.36D+00
                    CP:  1.39D+00  1.60D+00
 E= -466.850484032132     Delta-E=       -0.000000074593 Rises=F Damp=F
 DIIS: error= 6.25D-06 at cycle  13 NSaved=  13.
 NSaved=13 IEnMin=13 EnMin= -466.850484032132     IErMin=13 ErrMin= 6.25D-06
 ErrMax= 6.25D-06  0.00D+00 EMaxC= 1.00D-01 BMatC= 1.24D-08 BMatP= 6.21D-08
 IDIUse=1 WtCom= 1.00D+00 WtEn= 0.00D+00
 Coeff-Com: -0.853D-04 0.186D-03 0.745D-04-0.715D-03 0.411D-03 0.134D-02
 Coeff-Com: -0.180D-02-0.446D-03 0.258D-02-0.662D-03-0.140D+00-0.171D+00
 Coeff-Com:  0.131D+01
 Coeff:     -0.853D-04 0.186D-03 0.745D-04-0.715D-03 0.411D-03 0.134D-02
 Coeff:     -0.180D-02-0.446D-03 0.258D-02-0.662D-03-0.140D+00-0.171D+00
 Coeff:      0.131D+01
 Gap=     0.317 Goal=   None    Shift=    0.000
 Gap=     0.317 Goal=   None    Shift=    0.000
 RMSDP=3.59D-07 MaxDP=1.89D-05 DE=-7.46D-08 OVMax= 8.39D-05

 Cycle  14  Pass 1  IDiag  1:
 RMSU=  2.58D-07    CP:  8.84D-01  2.37D+00  1.37D+00  2.64D+00  3.00D+00
                    CP:  3.00D+00  3.00D+00  1.82D+00  1.41D+00  1.38D+00
                    CP:  1.42D+00  1.78D+00  1.52D+00
 E= -466.850484057478     Delta-E=       -0.000000025346 Rises=F Damp=F
 DIIS: error= 3.48D-06 at cycle  14 NSaved=  14.
 NSaved=14 IEnMin=14 EnMin= -466.850484057478     IErMin=14 ErrMin= 3.48D-06
 ErrMax= 3.48D-06  0.00D+00 EMaxC= 1.00D-01 BMatC= 3.97D-09 BMatP= 1.24D-08
 IDIUse=1 WtCom= 1.00D+00 WtEn= 0.00D+00
 Coeff-Com: -0.199D-03 0.430D-03 0.679D-04-0.240D-02 0.246D-02 0.602D-02
 Coeff-Com: -0.721D-02-0.126D-01 0.139D-01 0.804D-01-0.755D-01-0.368D+00
 Coeff-Com:  0.793D-01 0.128D+01
 Coeff:     -0.199D-03 0.430D-03 0.679D-04-0.240D-02 0.246D-02 0.602D-02
 Coeff:     -0.721D-02-0.126D-01 0.139D-01 0.804D-01-0.755D-01-0.368D+00
 Coeff:      0.793D-01 0.128D+01
 Gap=     0.317 Goal=   None    Shift=    0.000
 Gap=     0.317 Goal=   None    Shift=    0.000
 RMSDP=2.71D-07 MaxDP=1.22D-05 DE=-2.53D-08 OVMax= 6.55D-05

 Cycle  15  Pass 1  IDiag  1:
 RMSU=  9.37D-08    CP:  8.84D-01  2.37D+00  1.37D+00  2.64D+00  3.00D+00
                    CP:  3.00D+00  3.00D+00  1.82D+00  1.41D+00  1.39D+00
                    CP:  1.42D+00  1.87D+00  1.91D+00  1.75D+00
 E= -466.850484066520     Delta-E=       -0.000000009042 Rises=F Damp=F
 DIIS: error= 1.21D-06 at cycle  15 NSaved=  15.
 NSaved=15 IEnMin=15 EnMin= -466.850484066520     IErMin=15 ErrMin= 1.21D-06
 ErrMax= 1.21D-06  0.00D+00 EMaxC= 1.00D-01 BMatC= 6.48D-10 BMatP= 3.97D-09
 IDIUse=1 WtCom= 1.00D+00 WtEn= 0.00D+00
 Coeff-Com:  0.889D-05-0.194D-04-0.237D-04-0.406D-04 0.271D-03 0.330D-03
 Coeff-Com: -0.886D-03-0.124D-02 0.325D-02 0.135D-01 0.150D-01-0.361D-01
 Coeff-Com: -0.296D+00 0.257D+00 0.105D+01
 Coeff:      0.889D-05-0.194D-04-0.237D-04-0.406D-04 0.271D-03 0.330D-03
 Coeff:     -0.886D-03-0.124D-02 0.325D-02 0.135D-01 0.150D-01-0.361D-01
 Coeff:     -0.296D+00 0.257D+00 0.105D+01
 Gap=     0.317 Goal=   None    Shift=    0.000
 Gap=     0.317 Goal=   None    Shift=    0.000
 RMSDP=1.16D-07 MaxDP=4.78D-06 DE=-9.04D-09 OVMax= 2.71D-05

 Cycle  16  Pass 1  IDiag  1:
 RMSU=  4.55D-08    CP:  8.84D-01  2.37D+00  1.37D+00  2.64D+00  3.00D+00
                    CP:  3.00D+00  3.00D+00  1.82D+00  1.41D+00  1.39D+00
                    CP:  1.42D+00  1.90D+00  2.04D+00  2.01D+00  1.57D+00
 E= -466.850484067613     Delta-E=       -0.000000001093 Rises=F Damp=F
 DIIS: error= 2.28D-07 at cycle  16 NSaved=  16.
 NSaved=16 IEnMin=16 EnMin= -466.850484067613     IErMin=16 ErrMin= 2.28D-07
 ErrMax= 2.28D-07  0.00D+00 EMaxC= 1.00D-01 BMatC= 5.52D-11 BMatP= 6.48D-10
 IDIUse=1 WtCom= 1.00D+00 WtEn= 0.00D+00
 Coeff-Com:  0.980D-05-0.211D-04-0.820D-05 0.106D-03-0.644D-04-0.213D-03
 Coeff-Com:  0.171D-03 0.478D-03-0.348D-03-0.276D-02 0.921D-02 0.194D-01
 Coeff-Com: -0.624D-01-0.595D-01 0.209D+00 0.886D+00
 Coeff:      0.980D-05-0.211D-04-0.820D-05 0.106D-03-0.644D-04-0.213D-03
 Coeff:      0.171D-03 0.478D-03-0.348D-03-0.276D-02 0.921D-02 0.194D-01
 Coeff:     -0.624D-01-0.595D-01 0.209D+00 0.886D+00
 Gap=     0.317 Goal=   None    Shift=    0.000
 Gap=     0.317 Goal=   None    Shift=    0.000
 RMSDP=2.64D-08 MaxDP=1.10D-06 DE=-1.09D-09 OVMax= 4.26D-06

 Cycle  17  Pass 1  IDiag  1:
 RMSU=  1.15D-08    CP:  8.84D-01  2.37D+00  1.37D+00  2.64D+00  3.00D+00
                    CP:  3.00D+00  3.00D+00  1.82D+00  1.41D+00  1.39D+00
                    CP:  1.42D+00  1.90D+00  2.05D+00  2.04D+00  1.72D+00
                    CP:  1.32D+00
 E= -466.850484067664     Delta-E=       -0.000000000051 Rises=F Damp=F
 DIIS: error= 8.78D-08 at cycle  17 NSaved=  17.
 NSaved=17 IEnMin=17 EnMin= -466.850484067664     IErMin=17 ErrMin= 8.78D-08
 ErrMax= 8.78D-08  0.00D+00 EMaxC= 1.00D-01 BMatC= 7.69D-12 BMatP= 5.52D-11
 IDIUse=1 WtCom= 1.00D+00 WtEn= 0.00D+00
 Coeff-Com:  0.605D-06-0.126D-05 0.637D-06 0.126D-04-0.307D-04-0.289D-04
 Coeff-Com:  0.760D-04 0.189D-03-0.477D-03-0.197D-02-0.500D-03 0.713D-02
 Coeff-Com:  0.324D-01-0.459D-01-0.118D+00 0.156D+00 0.971D+00
 Coeff:      0.605D-06-0.126D-05 0.637D-06 0.126D-04-0.307D-04-0.289D-04
 Coeff:      0.760D-04 0.189D-03-0.477D-03-0.197D-02-0.500D-03 0.713D-02
 Coeff:      0.324D-01-0.459D-01-0.118D+00 0.156D+00 0.971D+00
 Gap=     0.317 Goal=   None    Shift=    0.000
 Gap=     0.317 Goal=   None    Shift=    0.000
 RMSDP=1.00D-08 MaxDP=3.14D-07 DE=-5.07D-11 OVMax= 1.48D-06

 Cycle  18  Pass 1  IDiag  1:
 RMSU=  5.03D-09    CP:  8.84D-01  2.37D+00  1.37D+00  2.64D+00  3.00D+00
                    CP:  3.00D+00  3.00D+00  1.82D+00  1.41D+00  1.39D+00
                    CP:  1.42D+00  1.90D+00  2.05D+00  2.03D+00  1.78D+00
                    CP:  1.42D+00  1.23D+00
 E= -466.850484067666     Delta-E=       -0.000000000003 Rises=F Damp=F
 DIIS: error= 3.25D-08 at cycle  18 NSaved=  18.
 NSaved=18 IEnMin=18 EnMin= -466.850484067666     IErMin=18 ErrMin= 3.25D-08
 ErrMax= 3.25D-08  0.00D+00 EMaxC= 1.00D-01 BMatC= 6.22D-13 BMatP= 7.69D-12
 IDIUse=1 WtCom= 1.00D+00 WtEn= 0.00D+00
 Coeff-Com:  0.632D-06-0.137D-05 0.511D-06 0.729D-05-0.189D-04-0.151D-04
 Coeff-Com:  0.315D-04 0.414D-04-0.628D-04-0.228D-03-0.698D-03-0.244D-03
 Coeff-Com:  0.857D-02-0.476D-03-0.303D-01-0.692D-01 0.105D+00 0.988D+00
 Coeff:      0.632D-06-0.137D-05 0.511D-06 0.729D-05-0.189D-04-0.151D-04
 Coeff:      0.315D-04 0.414D-04-0.628D-04-0.228D-03-0.698D-03-0.244D-03
 Coeff:      0.857D-02-0.476D-03-0.303D-01-0.692D-01 0.105D+00 0.988D+00
 Gap=     0.317 Goal=   None    Shift=    0.000
 Gap=     0.317 Goal=   None    Shift=    0.000
 RMSDP=2.53D-09 MaxDP=8.69D-08 DE=-2.73D-12 OVMax= 3.10D-07

 Error on total polarization charges =  0.01119
 SCF Done:  E(UwB97XD) =  -466.850484068     A.U. after   18 cycles
            NFock= 18  Conv=0.25D-08     -V/T= 2.0058
 <Sx>= 0.0000 <Sy>= 0.0000 <Sz>= 0.0000 <S**2>=-0.0000 S=-0.0000
 <L.S>=  0.00000000000    
 KE= 4.641746449773D+02 PE=-2.421978101402D+03 EE= 8.209261218053D+02
 --------------------------------------------------------------------
 Variational PCM results
 =======================
 <psi(f)|   H    |psi(f)>                     (a.u.) =    -466.858172
 <psi(f)|H+V(f)/2|psi(f)>                     (a.u.) =    -466.859674
 Total free energy in solution:
 - with all non electrostatic terms           (a.u.) =    -466.850484
 --------------------------------------------------------------------
 (Polarized solute)-Solvent               (kcal/mol) =      -0.94
 --------------------------------------------------------------------
 Quantum repulsion energy                 (kcal/mol) =       5.77
 Total non electrostatic                  (kcal/mol) =       5.77
 --------------------------------------------------------------------
 Partition over spheres:
 Sphere  on Atom  Surface  Charge   GEl     GCav    GDR
    1               6.98   0.010   -0.05    0.00    0.00
    2               4.77   0.007   -0.04    0.00    0.00
    3               7.52  -0.010   -0.04    0.00    0.00
    4               3.09  -0.004   -0.01    0.00    0.00
    5               4.42   0.008   -0.05    0.00    0.00
    6               4.29   0.005   -0.03    0.00    0.00
    7               4.84  -0.007   -0.03    0.00    0.00
    8               4.16  -0.006   -0.01    0.00    0.00
    9               3.60   0.002    0.00    0.00    0.00
   10               7.17  -0.007   -0.01    0.00    0.00
   11               3.24  -0.003   -0.01    0.00    0.00
   12               6.42   0.010   -0.06    0.00    0.00
   13               7.51  -0.010   -0.03    0.00    0.00
   14               6.98   0.010   -0.05    0.00    0.00
   15               7.52  -0.010   -0.04    0.00    0.00
   16               3.79   0.002    0.00    0.00    0.00
   17               3.28  -0.002   -0.01    0.00    0.00
   18               7.43  -0.008   -0.03    0.00    0.00
   19               5.09   0.009   -0.06    0.00    0.00
   20               5.01  -0.007   -0.03    0.00    0.00
   21               6.63   0.010   -0.06    0.00    0.00
   22               7.51  -0.010   -0.03    0.00    0.00
   23               3.60   0.002    0.00    0.00    0.00
   24               2.95  -0.003   -0.01    0.00    0.00
   25               7.17  -0.007   -0.01    0.00    0.00
   26               3.46   0.002    0.00    0.00    0.00
   27               7.43  -0.008   -0.03    0.00    0.00
   28               2.54  -0.002   -0.01    0.00    0.00
 Added spheres:    76.31   0.017   -0.22    0.00    0.00
 --------------------------------------------------------------------
 After PCM corrections, the energy is  -466.850484068     a.u.
 --------------------------------------------------------------------
 Annihilation of the first spin contaminant:
 S**2 before annihilation    -0.0000,   after    -0.0000
 Leave Link  502 at Mon Aug  3 21:40:56 2020, MaxMem=  6442450944 cpu:            7800.4 elap:             327.8
 (Enter /scratch/scicomp/CentOS/7.3.1611/Haswell/software/Gaussian/g16/l601.exe)
 Copying SCF densities to generalized density rwf, IOpCl= 1 IROHF=0.

 **********************************************************************

            Population analysis using the SCF Density.

 **********************************************************************

 Alpha  occ. eigenvalues --  -10.28268 -10.28267 -10.28136 -10.28135 -10.28094
 Alpha  occ. eigenvalues --  -10.28093 -10.28033 -10.28032 -10.27804 -10.27803
 Alpha  occ. eigenvalues --  -10.27518 -10.27518  -0.93984  -0.93580  -0.84000
 Alpha  occ. eigenvalues --   -0.83961  -0.83771  -0.83590  -0.71164  -0.71110
 Alpha  occ. eigenvalues --   -0.67806  -0.67802  -0.59615  -0.59478  -0.57305
 Alpha  occ. eigenvalues --   -0.56756  -0.53318  -0.52592  -0.50791  -0.50731
 Alpha  occ. eigenvalues --   -0.49825  -0.49394  -0.47167  -0.46859  -0.45005
 Alpha  occ. eigenvalues --   -0.44903  -0.41095  -0.40920  -0.39524  -0.39127
 Alpha  occ. eigenvalues --   -0.39121  -0.38938  -0.29633  -0.27697
 Alpha virt. eigenvalues --    0.04018   0.04824   0.11360   0.12929   0.14282
 Alpha virt. eigenvalues --    0.15247   0.15355   0.16248   0.16419   0.16898
 Alpha virt. eigenvalues --    0.17706   0.17727   0.18065   0.19192   0.20890
 Alpha virt. eigenvalues --    0.21748   0.22436   0.23494   0.23835   0.24311
 Alpha virt. eigenvalues --    0.25666   0.26433   0.26593   0.27566   0.28645
 Alpha virt. eigenvalues --    0.28771   0.29478   0.29712   0.30539   0.31053
 Alpha virt. eigenvalues --    0.31920   0.32462   0.32464   0.32796   0.33430
 Alpha virt. eigenvalues --    0.33996   0.34512   0.35732   0.36020   0.37845
 Alpha virt. eigenvalues --    0.38070   0.38826   0.40305   0.41610   0.41923
 Alpha virt. eigenvalues --    0.42065   0.43769   0.44577   0.45783   0.46444
 Alpha virt. eigenvalues --    0.46762   0.46915   0.48247   0.48624   0.48887
 Alpha virt. eigenvalues --    0.49134   0.49630   0.49913   0.50301   0.50480
 Alpha virt. eigenvalues --    0.51246   0.51346   0.51982   0.52479   0.53199
 Alpha virt. eigenvalues --    0.53452   0.54086   0.55030   0.55051   0.55730
 Alpha virt. eigenvalues --    0.57662   0.58034   0.58091   0.59670   0.59848
 Alpha virt. eigenvalues --    0.60323   0.61376   0.63213   0.63626   0.64500
 Alpha virt. eigenvalues --    0.65300   0.66910   0.68215   0.68773   0.69419
 Alpha virt. eigenvalues --    0.71280   0.72468   0.73310   0.73603   0.75256
 Alpha virt. eigenvalues --    0.76941   0.78395   0.78615   0.81018   0.82003
 Alpha virt. eigenvalues --    0.82022   0.82381   0.83071   0.87188   0.87459
 Alpha virt. eigenvalues --    0.88115   0.88722   0.91111   0.91661   0.92448
 Alpha virt. eigenvalues --    0.92683   0.95482   0.96466   0.98799   0.99218
 Alpha virt. eigenvalues --    1.01033   1.03761   1.04141   1.04374   1.04754
 Alpha virt. eigenvalues --    1.07011   1.07198   1.08446   1.09792   1.11776
 Alpha virt. eigenvalues --    1.13566   1.13600   1.14470   1.14973   1.15763
 Alpha virt. eigenvalues --    1.16335   1.16593   1.16873   1.19146   1.20716
 Alpha virt. eigenvalues --    1.21575   1.22746   1.23755   1.23960   1.24920
 Alpha virt. eigenvalues --    1.25442   1.25983   1.26928   1.27165   1.28650
 Alpha virt. eigenvalues --    1.28892   1.30608   1.32294   1.32700   1.32862
 Alpha virt. eigenvalues --    1.34451   1.34967   1.36002   1.37158   1.38429
 Alpha virt. eigenvalues --    1.38963   1.39900   1.40791   1.41123   1.41874
 Alpha virt. eigenvalues --    1.42531   1.42795   1.44042   1.45106   1.45461
 Alpha virt. eigenvalues --    1.46050   1.46790   1.46849   1.47055   1.48960
 Alpha virt. eigenvalues --    1.50165   1.50477   1.50777   1.53462   1.55691
 Alpha virt. eigenvalues --    1.56247   1.57719   1.58150   1.58492   1.61080
 Alpha virt. eigenvalues --    1.61100   1.62624   1.63502   1.65197   1.67723
 Alpha virt. eigenvalues --    1.68584   1.69997   1.70451   1.72817   1.75778
 Alpha virt. eigenvalues --    1.75958   1.79978   1.80484   1.82723   1.83792
 Alpha virt. eigenvalues --    1.86573   1.87975   1.89598   1.89944   1.91521
 Alpha virt. eigenvalues --    1.92634   1.95941   1.99988   2.01133   2.01507
 Alpha virt. eigenvalues --    2.04103   2.05316   2.06951   2.07731   2.08786
 Alpha virt. eigenvalues --    2.09072   2.11744   2.12428   2.13309   2.15543
 Alpha virt. eigenvalues --    2.18693   2.19747   2.20111   2.20766   2.22450
 Alpha virt. eigenvalues --    2.23329   2.23361   2.24183   2.25914   2.26340
 Alpha virt. eigenvalues --    2.28880   2.32857   2.37272   2.38024   2.40512
 Alpha virt. eigenvalues --    2.42867   2.46119   2.46585   2.48718   2.49836
 Alpha virt. eigenvalues --    2.50123   2.50424   2.53215   2.54415   2.54443
 Alpha virt. eigenvalues --    2.55255   2.57307   2.57604   2.60587   2.61121
 Alpha virt. eigenvalues --    2.62176   2.64396   2.64470   2.65246   2.66504
 Alpha virt. eigenvalues --    2.67873   2.68218   2.70449   2.72357   2.72482
 Alpha virt. eigenvalues --    2.73244   2.73351   2.74894   2.76040   2.77009
 Alpha virt. eigenvalues --    2.77686   2.77711   2.78999   2.80671   2.81233
 Alpha virt. eigenvalues --    2.81662   2.82072   2.82493   2.83873   2.84571
 Alpha virt. eigenvalues --    2.84902   2.86219   2.87289   2.88810   2.88957
 Alpha virt. eigenvalues --    2.89984   2.90184   2.92494   2.92899   2.93295
 Alpha virt. eigenvalues --    2.94740   2.94832   2.95196   2.96107   2.98997
 Alpha virt. eigenvalues --    3.01937   3.02007   3.02971   3.04293   3.06395
 Alpha virt. eigenvalues --    3.06527   3.08492   3.09181   3.09596   3.11039
 Alpha virt. eigenvalues --    3.12266   3.12719   3.12934   3.14188   3.14958
 Alpha virt. eigenvalues --    3.15068   3.17159   3.17290   3.18675   3.18907
 Alpha virt. eigenvalues --    3.19593   3.19815   3.20263   3.21072   3.21260
 Alpha virt. eigenvalues --    3.22410   3.22838   3.23436   3.23544   3.24229
 Alpha virt. eigenvalues --    3.25590   3.26252   3.27001   3.27659   3.28262
 Alpha virt. eigenvalues --    3.28961   3.29279   3.30448   3.31321   3.31429
 Alpha virt. eigenvalues --    3.32466   3.33053   3.33204   3.33705   3.34489
 Alpha virt. eigenvalues --    3.34999   3.35638   3.36145   3.37708   3.38425
 Alpha virt. eigenvalues --    3.39048   3.39744   3.42153   3.43746   3.43922
 Alpha virt. eigenvalues --    3.44932   3.45665   3.46547   3.46618   3.47036
 Alpha virt. eigenvalues --    3.48565   3.49009   3.49106   3.49682   3.51194
 Alpha virt. eigenvalues --    3.51414   3.52354   3.53537   3.54638   3.54913
 Alpha virt. eigenvalues --    3.55166   3.55557   3.59009   3.59312   3.62232
 Alpha virt. eigenvalues --    3.63693   3.64767   3.65018   3.65138   3.65440
 Alpha virt. eigenvalues --    3.68095   3.68610   3.70470   3.71776   3.72076
 Alpha virt. eigenvalues --    3.74253   3.76333   3.76747   3.78674   3.79302
 Alpha virt. eigenvalues --    3.84622   3.84840   3.85482   3.86227   3.86426
 Alpha virt. eigenvalues --    3.88040   3.90137   3.90581   3.92843   3.93722
 Alpha virt. eigenvalues --    3.94753   3.95510   3.99668   3.99796   4.02142
 Alpha virt. eigenvalues --    4.04391   4.08321   4.08982   4.09110   4.10714
 Alpha virt. eigenvalues --    4.11900   4.12875   4.13397   4.16092   4.17995
 Alpha virt. eigenvalues --    4.19025   4.20001   4.21616   4.22760   4.23390
 Alpha virt. eigenvalues --    4.25147   4.27321   4.31011   4.31086   4.33508
 Alpha virt. eigenvalues --    4.35323   4.37453   4.37565   4.39349   4.40429
 Alpha virt. eigenvalues --    4.43600   4.44562   4.45995   4.47655   4.49093
 Alpha virt. eigenvalues --    4.49693   4.59046   4.60768   4.61916   4.65310
 Alpha virt. eigenvalues --    4.69090   4.69290   4.71722   4.74161   4.74443
 Alpha virt. eigenvalues --    4.75472   4.77650   4.78382   4.80193   4.83020
 Alpha virt. eigenvalues --    4.84223   4.84578   4.89260   4.89543   4.94125
 Alpha virt. eigenvalues --    4.94223   4.95810   4.97865   5.05753   5.08385
 Alpha virt. eigenvalues --    5.11040   5.11659   5.17997   5.19182   5.23063
 Alpha virt. eigenvalues --    5.23679   5.29761   5.32002   5.40000   5.40567
 Alpha virt. eigenvalues --    5.43398   5.44745   5.48644   5.49036   5.66696
 Alpha virt. eigenvalues --    5.70370   5.75065   5.77093   5.92182   5.98343
 Alpha virt. eigenvalues --    7.94124   7.95754   8.02037   8.03281   8.06029
 Alpha virt. eigenvalues --    8.07084   8.10921   8.11239   8.17529   8.18343
 Alpha virt. eigenvalues --    8.33892   8.36051  34.76305  34.77891  34.81012
 Alpha virt. eigenvalues --   34.82079  34.85707  34.87068  34.97348  34.97902
 Alpha virt. eigenvalues --   35.00485  35.01635  35.15429  35.18752
  Beta  occ. eigenvalues --  -10.28268 -10.28267 -10.28136 -10.28135 -10.28094
  Beta  occ. eigenvalues --  -10.28093 -10.28033 -10.28032 -10.27804 -10.27803
  Beta  occ. eigenvalues --  -10.27518 -10.27518  -0.93984  -0.93580  -0.84000
  Beta  occ. eigenvalues --   -0.83961  -0.83771  -0.83590  -0.71164  -0.71110
  Beta  occ. eigenvalues --   -0.67806  -0.67802  -0.59615  -0.59478  -0.57305
  Beta  occ. eigenvalues --   -0.56756  -0.53318  -0.52592  -0.50791  -0.50731
  Beta  occ. eigenvalues --   -0.49825  -0.49394  -0.47167  -0.46859  -0.45005
  Beta  occ. eigenvalues --   -0.44903  -0.41095  -0.40920  -0.39524  -0.39127
  Beta  occ. eigenvalues --   -0.39121  -0.38938  -0.29633  -0.27697
  Beta virt. eigenvalues --    0.04018   0.04824   0.11360   0.12929   0.14282
  Beta virt. eigenvalues --    0.15247   0.15355   0.16248   0.16419   0.16898
  Beta virt. eigenvalues --    0.17706   0.17727   0.18065   0.19192   0.20890
  Beta virt. eigenvalues --    0.21748   0.22436   0.23494   0.23835   0.24311
  Beta virt. eigenvalues --    0.25666   0.26433   0.26593   0.27566   0.28645
  Beta virt. eigenvalues --    0.28771   0.29478   0.29712   0.30539   0.31053
  Beta virt. eigenvalues --    0.31920   0.32462   0.32464   0.32796   0.33430
  Beta virt. eigenvalues --    0.33996   0.34512   0.35732   0.36020   0.37845
  Beta virt. eigenvalues --    0.38070   0.38826   0.40305   0.41610   0.41923
  Beta virt. eigenvalues --    0.42065   0.43769   0.44577   0.45783   0.46444
  Beta virt. eigenvalues --    0.46762   0.46915   0.48247   0.48624   0.48887
  Beta virt. eigenvalues --    0.49134   0.49630   0.49913   0.50301   0.50480
  Beta virt. eigenvalues --    0.51246   0.51346   0.51982   0.52479   0.53199
  Beta virt. eigenvalues --    0.53452   0.54086   0.55030   0.55051   0.55730
  Beta virt. eigenvalues --    0.57662   0.58034   0.58091   0.59670   0.59848
  Beta virt. eigenvalues --    0.60323   0.61376   0.63213   0.63626   0.64500
  Beta virt. eigenvalues --    0.65300   0.66910   0.68215   0.68773   0.69419
  Beta virt. eigenvalues --    0.71280   0.72468   0.73310   0.73603   0.75256
  Beta virt. eigenvalues --    0.76941   0.78395   0.78615   0.81018   0.82003
  Beta virt. eigenvalues --    0.82022   0.82381   0.83071   0.87188   0.87459
  Beta virt. eigenvalues --    0.88115   0.88722   0.91111   0.91661   0.92448
  Beta virt. eigenvalues --    0.92683   0.95482   0.96466   0.98799   0.99218
  Beta virt. eigenvalues --    1.01033   1.03761   1.04141   1.04374   1.04754
  Beta virt. eigenvalues --    1.07011   1.07198   1.08446   1.09792   1.11776
  Beta virt. eigenvalues --    1.13566   1.13600   1.14470   1.14973   1.15763
  Beta virt. eigenvalues --    1.16335   1.16593   1.16873   1.19146   1.20716
  Beta virt. eigenvalues --    1.21575   1.22746   1.23755   1.23960   1.24920
  Beta virt. eigenvalues --    1.25442   1.25983   1.26928   1.27165   1.28650
  Beta virt. eigenvalues --    1.28892   1.30608   1.32294   1.32700   1.32862
  Beta virt. eigenvalues --    1.34451   1.34967   1.36002   1.37158   1.38429
  Beta virt. eigenvalues --    1.38963   1.39900   1.40791   1.41123   1.41874
  Beta virt. eigenvalues --    1.42531   1.42795   1.44042   1.45106   1.45461
  Beta virt. eigenvalues --    1.46050   1.46790   1.46849   1.47055   1.48960
  Beta virt. eigenvalues --    1.50165   1.50477   1.50777   1.53462   1.55691
  Beta virt. eigenvalues --    1.56247   1.57719   1.58150   1.58492   1.61080
  Beta virt. eigenvalues --    1.61100   1.62624   1.63502   1.65197   1.67723
  Beta virt. eigenvalues --    1.68584   1.69997   1.70451   1.72817   1.75778
  Beta virt. eigenvalues --    1.75958   1.79978   1.80484   1.82723   1.83792
  Beta virt. eigenvalues --    1.86573   1.87975   1.89598   1.89944   1.91521
  Beta virt. eigenvalues --    1.92634   1.95941   1.99988   2.01133   2.01507
  Beta virt. eigenvalues --    2.04103   2.05316   2.06951   2.07731   2.08786
  Beta virt. eigenvalues --    2.09072   2.11744   2.12428   2.13309   2.15543
  Beta virt. eigenvalues --    2.18693   2.19747   2.20111   2.20766   2.22450
  Beta virt. eigenvalues --    2.23329   2.23361   2.24183   2.25914   2.26340
  Beta virt. eigenvalues --    2.28880   2.32857   2.37272   2.38024   2.40512
  Beta virt. eigenvalues --    2.42867   2.46119   2.46585   2.48718   2.49836
  Beta virt. eigenvalues --    2.50123   2.50424   2.53215   2.54415   2.54443
  Beta virt. eigenvalues --    2.55255   2.57307   2.57604   2.60587   2.61121
  Beta virt. eigenvalues --    2.62176   2.64396   2.64470   2.65246   2.66504
  Beta virt. eigenvalues --    2.67873   2.68218   2.70449   2.72357   2.72482
  Beta virt. eigenvalues --    2.73244   2.73351   2.74894   2.76040   2.77009
  Beta virt. eigenvalues --    2.77686   2.77711   2.78999   2.80671   2.81233
  Beta virt. eigenvalues --    2.81662   2.82072   2.82493   2.83873   2.84571
  Beta virt. eigenvalues --    2.84902   2.86219   2.87289   2.88810   2.88957
  Beta virt. eigenvalues --    2.89984   2.90184   2.92494   2.92899   2.93295
  Beta virt. eigenvalues --    2.94740   2.94832   2.95196   2.96107   2.98997
  Beta virt. eigenvalues --    3.01937   3.02007   3.02971   3.04293   3.06395
  Beta virt. eigenvalues --    3.06527   3.08492   3.09181   3.09596   3.11039
  Beta virt. eigenvalues --    3.12266   3.12719   3.12934   3.14188   3.14958
  Beta virt. eigenvalues --    3.15068   3.17159   3.17290   3.18675   3.18907
  Beta virt. eigenvalues --    3.19593   3.19815   3.20263   3.21072   3.21260
  Beta virt. eigenvalues --    3.22410   3.22838   3.23436   3.23544   3.24229
  Beta virt. eigenvalues --    3.25590   3.26252   3.27001   3.27659   3.28262
  Beta virt. eigenvalues --    3.28961   3.29279   3.30448   3.31321   3.31429
  Beta virt. eigenvalues --    3.32466   3.33053   3.33204   3.33705   3.34489
  Beta virt. eigenvalues --    3.34999   3.35638   3.36145   3.37708   3.38425
  Beta virt. eigenvalues --    3.39048   3.39744   3.42153   3.43746   3.43922
  Beta virt. eigenvalues --    3.44932   3.45665   3.46547   3.46618   3.47036
  Beta virt. eigenvalues --    3.48565   3.49009   3.49106   3.49682   3.51194
  Beta virt. eigenvalues --    3.51414   3.52354   3.53537   3.54638   3.54913
  Beta virt. eigenvalues --    3.55166   3.55557   3.59009   3.59312   3.62232
  Beta virt. eigenvalues --    3.63693   3.64767   3.65018   3.65138   3.65440
  Beta virt. eigenvalues --    3.68095   3.68610   3.70470   3.71776   3.72076
  Beta virt. eigenvalues --    3.74253   3.76333   3.76747   3.78674   3.79302
  Beta virt. eigenvalues --    3.84622   3.84840   3.85482   3.86227   3.86426
  Beta virt. eigenvalues --    3.88040   3.90137   3.90581   3.92843   3.93722
  Beta virt. eigenvalues --    3.94753   3.95510   3.99668   3.99796   4.02142
  Beta virt. eigenvalues --    4.04391   4.08321   4.08982   4.09110   4.10714
  Beta virt. eigenvalues --    4.11900   4.12875   4.13397   4.16092   4.17995
  Beta virt. eigenvalues --    4.19025   4.20001   4.21616   4.22760   4.23390
  Beta virt. eigenvalues --    4.25147   4.27321   4.31011   4.31086   4.33508
  Beta virt. eigenvalues --    4.35323   4.37453   4.37565   4.39349   4.40429
  Beta virt. eigenvalues --    4.43600   4.44562   4.45995   4.47655   4.49093
  Beta virt. eigenvalues --    4.49693   4.59046   4.60768   4.61916   4.65310
  Beta virt. eigenvalues --    4.69090   4.69290   4.71722   4.74161   4.74443
  Beta virt. eigenvalues --    4.75472   4.77650   4.78382   4.80193   4.83020
  Beta virt. eigenvalues --    4.84223   4.84578   4.89260   4.89543   4.94125
  Beta virt. eigenvalues --    4.94223   4.95810   4.97865   5.05753   5.08385
  Beta virt. eigenvalues --    5.11040   5.11659   5.17997   5.19182   5.23063
  Beta virt. eigenvalues --    5.23679   5.29761   5.32002   5.40000   5.40567
  Beta virt. eigenvalues --    5.43398   5.44745   5.48644   5.49036   5.66696
  Beta virt. eigenvalues --    5.70370   5.75065   5.77093   5.92182   5.98343
  Beta virt. eigenvalues --    7.94124   7.95754   8.02037   8.03281   8.06029
  Beta virt. eigenvalues --    8.07084   8.10921   8.11239   8.17529   8.18343
  Beta virt. eigenvalues --    8.33892   8.36051  34.76305  34.77891  34.81012
  Beta virt. eigenvalues --   34.82079  34.85707  34.87068  34.97348  34.97902
  Beta virt. eigenvalues --   35.00485  35.01635  35.15429  35.18752
          Condensed to atoms (all electrons):
               1          2          3          4          5          6
     1  C    5.142964   0.008726   0.422055  -0.001806   0.000277  -0.003227
     2  C    0.008726   5.266833  -0.001780   0.423944  -0.019923  -0.042164
     3  H    0.422055  -0.001780   0.490820   0.000028  -0.000041  -0.000031
     4  H   -0.001806   0.423944   0.000028   0.472506  -0.001498   0.001635
     5  C    0.000277  -0.019923  -0.000041  -0.001498   5.116528   0.531863
     6  C   -0.003227  -0.042164  -0.000031   0.001635   0.531863   5.267752
     7  H    0.000214  -0.000912   0.000000  -0.000055   0.422500  -0.026813
     8  H   -0.000688   0.001629   0.000001  -0.000020  -0.041072   0.423962
     9  C    0.000995   0.000135  -0.000003  -0.000852  -0.069558   0.250772
    10  H   -0.000020  -0.000208  -0.000001  -0.000046  -0.003214  -0.034846
    11  H   -0.000013  -0.001636  -0.000000   0.000054   0.007751  -0.052723
    12  C   -0.000083   0.006507   0.000002   0.000829   0.304729  -0.072486
    13  H   -0.000001   0.000022   0.000000  -0.000004  -0.033975   0.004150
    14  C    0.000114  -0.003227  -0.000000  -0.000697  -0.061846   0.008741
    15  H   -0.000000  -0.000031  -0.000000   0.000001   0.006549  -0.001782
    16  C   -0.000536   0.008071  -0.000001   0.000623   0.006848  -0.069452
    17  H   -0.000069  -0.001488  -0.000001  -0.000522   0.010132  -0.001849
    18  H    0.000001   0.000576   0.000000   0.000107  -0.002856   0.011308
    19  C   -0.061863   0.532143   0.006545  -0.040972  -0.001276  -0.019973
    20  H    0.003266  -0.026836  -0.000094  -0.004708   0.000147  -0.000916
    21  C    0.582187  -0.072506  -0.030812   0.005344   0.000532   0.006531
    22  H   -0.023836   0.004145  -0.005365  -0.000060   0.000010   0.000023
    23  C   -0.082883   0.250991   0.004734  -0.014070   0.003244   0.000136
    24  H    0.013001  -0.052777  -0.000094  -0.003988   0.002230  -0.001626
    25  H    0.004468  -0.034875  -0.000018  -0.000217   0.000265  -0.000208
    26  C    0.279523  -0.069451  -0.027217   0.003605  -0.002106   0.008061
    27  H   -0.039662   0.011302  -0.004481  -0.000100   0.000335   0.000575
    28  H   -0.036275  -0.001816   0.001054  -0.000123  -0.002485  -0.001462
               7          8          9         10         11         12
     1  C    0.000214  -0.000688   0.000995  -0.000020  -0.000013  -0.000083
     2  C   -0.000912   0.001629   0.000135  -0.000208  -0.001636   0.006507
     3  H    0.000000   0.000001  -0.000003  -0.000001  -0.000000   0.000002
     4  H   -0.000055  -0.000020  -0.000852  -0.000046   0.000054   0.000829
     5  C    0.422500  -0.041072  -0.069558  -0.003214   0.007751   0.304729
     6  C   -0.026813   0.423962   0.250772  -0.034846  -0.052723  -0.072486
     7  H    0.478201  -0.004700   0.002952  -0.000265  -0.000029  -0.028430
     8  H   -0.004700   0.472028  -0.013900  -0.000223  -0.003977   0.005346
     9  C    0.002952  -0.013900   4.948585   0.385950   0.450967   0.036782
    10  H   -0.000265  -0.000223   0.385950   0.569064  -0.020129   0.001525
    11  H   -0.000029  -0.003977   0.450967  -0.020129   0.535964  -0.004070
    12  C   -0.028430   0.005346   0.036782   0.001525  -0.004070   5.004214
    13  H   -0.003029  -0.000059  -0.000229  -0.000054   0.000027   0.422768
    14  C    0.003267  -0.001807  -0.082923   0.004454   0.012999   0.582106
    15  H   -0.000094   0.000028   0.004735  -0.000019  -0.000093  -0.030832
    16  C   -0.000602   0.003598   0.359191  -0.024652  -0.052268  -0.063988
    17  H    0.000027  -0.000124  -0.035016   0.006929  -0.007899  -0.014509
    18  H    0.000028  -0.000100  -0.045201  -0.007662  -0.001383   0.006379
    19  C    0.000148  -0.001499   0.003276   0.000264   0.002229   0.000528
    20  H    0.000007  -0.000055   0.001372   0.000085  -0.000545  -0.000090
    21  C   -0.000091   0.000834  -0.000195   0.000017  -0.000257  -0.000248
    22  H   -0.000000  -0.000003  -0.000031  -0.000001   0.000005  -0.000000
    23  C    0.001359  -0.000842   0.000055  -0.000005   0.000036  -0.000192
    24  H   -0.000544   0.000055   0.000034   0.000002  -0.000013  -0.000254
    25  H    0.000086  -0.000047  -0.000005   0.000001   0.000002   0.000016
    26  C   -0.001068   0.000576  -0.000557   0.000044  -0.000023   0.000510
    27  H   -0.000018   0.000107  -0.000022   0.000001  -0.000002  -0.000047
    28  H    0.001264  -0.000543   0.000345  -0.000009   0.000024   0.000600
              13         14         15         16         17         18
     1  C   -0.000001   0.000114  -0.000000  -0.000536  -0.000069   0.000001
     2  C    0.000022  -0.003227  -0.000031   0.008071  -0.001488   0.000576
     3  H    0.000000  -0.000000  -0.000000  -0.000001  -0.000001   0.000000
     4  H   -0.000004  -0.000697   0.000001   0.000623  -0.000522   0.000107
     5  C   -0.033975  -0.061846   0.006549   0.006848   0.010132  -0.002856
     6  C    0.004150   0.008741  -0.001782  -0.069452  -0.001849   0.011308
     7  H   -0.003029   0.003267  -0.000094  -0.000602   0.000027   0.000028
     8  H   -0.000059  -0.001807   0.000028   0.003598  -0.000124  -0.000100
     9  C   -0.000229  -0.082923   0.004735   0.359191  -0.035016  -0.045201
    10  H   -0.000054   0.004454  -0.000019  -0.024652   0.006929  -0.007662
    11  H    0.000027   0.012999  -0.000093  -0.052268  -0.007899  -0.001383
    12  C    0.422768   0.582106  -0.030832  -0.063988  -0.014509   0.006379
    13  H    0.487816  -0.023858  -0.005367   0.003788  -0.000357  -0.000091
    14  C   -0.023858   5.143072   0.422059   0.279441  -0.036233  -0.039672
    15  H   -0.005367   0.422059   0.490823  -0.027205   0.001052  -0.004478
    16  C    0.003788   0.279441  -0.027205   4.928066   0.401286   0.437679
    17  H   -0.000357  -0.036233   0.001052   0.401286   0.588362  -0.021427
    18  H   -0.000091  -0.039672  -0.004478   0.437679  -0.021427   0.537875
    19  C    0.000010   0.000287  -0.000041  -0.002126  -0.002479   0.000335
    20  H   -0.000000   0.000214  -0.000000  -0.001075   0.001257  -0.000018
    21  C   -0.000000  -0.000083   0.000002   0.000511   0.000600  -0.000047
    22  H    0.000000  -0.000001   0.000000   0.000010  -0.000002  -0.000001
    23  C   -0.000031   0.000995  -0.000003  -0.000563   0.000342  -0.000022
    24  H    0.000005  -0.000014  -0.000000  -0.000022   0.000024  -0.000002
    25  H   -0.000001  -0.000020  -0.000001   0.000043  -0.000009   0.000001
    26  C    0.000010  -0.000537  -0.000001   0.000968   0.000120  -0.000002
    27  H   -0.000001   0.000001   0.000000  -0.000002   0.000003  -0.000000
    28  H   -0.000002  -0.000069  -0.000001   0.000121  -0.000027   0.000003
              19         20         21         22         23         24
     1  C   -0.061863   0.003266   0.582187  -0.023836  -0.082883   0.013001
     2  C    0.532143  -0.026836  -0.072506   0.004145   0.250991  -0.052777
     3  H    0.006545  -0.000094  -0.030812  -0.005365   0.004734  -0.000094
     4  H   -0.040972  -0.004708   0.005344  -0.000060  -0.014070  -0.003988
     5  C   -0.001276   0.000147   0.000532   0.000010   0.003244   0.002230
     6  C   -0.019973  -0.000916   0.006531   0.000023   0.000136  -0.001626
     7  H    0.000148   0.000007  -0.000091  -0.000000   0.001359  -0.000544
     8  H   -0.001499  -0.000055   0.000834  -0.000003  -0.000842   0.000055
     9  C    0.003276   0.001372  -0.000195  -0.000031   0.000055   0.000034
    10  H    0.000264   0.000085   0.000017  -0.000001  -0.000005   0.000002
    11  H    0.002229  -0.000545  -0.000257   0.000005   0.000036  -0.000013
    12  C    0.000528  -0.000090  -0.000248  -0.000000  -0.000192  -0.000254
    13  H    0.000010  -0.000000  -0.000000   0.000000  -0.000031   0.000005
    14  C    0.000287   0.000214  -0.000083  -0.000001   0.000995  -0.000014
    15  H   -0.000041  -0.000000   0.000002   0.000000  -0.000003  -0.000000
    16  C   -0.002126  -0.001075   0.000511   0.000010  -0.000563  -0.000022
    17  H   -0.002479   0.001257   0.000600  -0.000002   0.000342   0.000024
    18  H    0.000335  -0.000018  -0.000047  -0.000001  -0.000022  -0.000002
    19  C    5.116218   0.422539   0.304866  -0.033948  -0.069559   0.007756
    20  H    0.422539   0.478163  -0.028429  -0.003027   0.002946  -0.000029
    21  C    0.304866  -0.028429   5.004026   0.422721   0.036755  -0.004069
    22  H   -0.033948  -0.003027   0.422721   0.487784  -0.000227   0.000027
    23  C   -0.069559   0.002946   0.036755  -0.000227   4.948198   0.450920
    24  H    0.007756  -0.000029  -0.004069   0.000027   0.450920   0.536346
    25  H   -0.003221  -0.000265   0.001523  -0.000054   0.385990  -0.020144
    26  C    0.006864  -0.000602  -0.064018   0.003787   0.359154  -0.052273
    27  H   -0.002857   0.000028   0.006377  -0.000091  -0.045175  -0.001382
    28  H    0.010104   0.000027  -0.014453  -0.000357  -0.035122  -0.007910
              25         26         27         28
     1  C    0.004468   0.279523  -0.039662  -0.036275
     2  C   -0.034875  -0.069451   0.011302  -0.001816
     3  H   -0.000018  -0.027217  -0.004481   0.001054
     4  H   -0.000217   0.003605  -0.000100  -0.000123
     5  C    0.000265  -0.002106   0.000335  -0.002485
     6  C   -0.000208   0.008061   0.000575  -0.001462
     7  H    0.000086  -0.001068  -0.000018   0.001264
     8  H   -0.000047   0.000576   0.000107  -0.000543
     9  C   -0.000005  -0.000557  -0.000022   0.000345
    10  H    0.000001   0.000044   0.000001  -0.000009
    11  H    0.000002  -0.000023  -0.000002   0.000024
    12  C    0.000016   0.000510  -0.000047   0.000600
    13  H   -0.000001   0.000010  -0.000001  -0.000002
    14  C   -0.000020  -0.000537   0.000001  -0.000069
    15  H   -0.000001  -0.000001   0.000000  -0.000001
    16  C    0.000043   0.000968  -0.000002   0.000121
    17  H   -0.000009   0.000120   0.000003  -0.000027
    18  H    0.000001  -0.000002  -0.000000   0.000003
    19  C   -0.003221   0.006864  -0.002857   0.010104
    20  H   -0.000265  -0.000602   0.000028   0.000027
    21  C    0.001523  -0.064018   0.006377  -0.014453
    22  H   -0.000054   0.003787  -0.000091  -0.000357
    23  C    0.385990   0.359154  -0.045175  -0.035122
    24  H   -0.020144  -0.052273  -0.001382  -0.007910
    25  H    0.569100  -0.024657  -0.007668   0.006935
    26  C   -0.024657   4.928130   0.437670   0.401344
    27  H   -0.007668   0.437670   0.537825  -0.021466
    28  H    0.006935   0.401344  -0.021466   0.588514
          Atomic-Atomic Spin Densities.
               1          2          3          4          5          6
     1  C   -0.000000  -0.000000  -0.000000  -0.000000   0.000000   0.000000
     2  C   -0.000000   0.000000   0.000000   0.000000  -0.000000  -0.000000
     3  H   -0.000000   0.000000   0.000000  -0.000000  -0.000000   0.000000
     4  H   -0.000000   0.000000  -0.000000  -0.000000   0.000000  -0.000000
     5  C    0.000000  -0.000000  -0.000000   0.000000  -0.000000   0.000000
     6  C    0.000000  -0.000000   0.000000  -0.000000   0.000000  -0.000000
     7  H   -0.000000   0.000000   0.000000  -0.000000  -0.000000  -0.000000
     8  H    0.000000   0.000000  -0.000000  -0.000000   0.000000  -0.000000
     9  C   -0.000000   0.000000  -0.000000  -0.000000   0.000000   0.000000
    10  H    0.000000  -0.000000  -0.000000   0.000000  -0.000000   0.000000
    11  H    0.000000  -0.000000  -0.000000   0.000000   0.000000  -0.000000
    12  C   -0.000000   0.000000   0.000000  -0.000000   0.000000  -0.000000
    13  H   -0.000000   0.000000   0.000000   0.000000   0.000000  -0.000000
    14  C   -0.000000  -0.000000  -0.000000  -0.000000  -0.000000   0.000000
    15  H    0.000000  -0.000000   0.000000   0.000000   0.000000  -0.000000
    16  C   -0.000000   0.000000   0.000000   0.000000  -0.000000  -0.000000
    17  H    0.000000  -0.000000  -0.000000   0.000000  -0.000000  -0.000000
    18  H   -0.000000  -0.000000   0.000000   0.000000  -0.000000  -0.000000
    19  C    0.000000  -0.000000  -0.000000  -0.000000   0.000000   0.000000
    20  H   -0.000000   0.000000   0.000000   0.000000   0.000000  -0.000000
    21  C    0.000000  -0.000000   0.000000  -0.000000  -0.000000  -0.000000
    22  H   -0.000000   0.000000  -0.000000  -0.000000   0.000000  -0.000000
    23  C   -0.000000  -0.000000   0.000000  -0.000000   0.000000  -0.000000
    24  H   -0.000000  -0.000000  -0.000000   0.000000   0.000000   0.000000
    25  H   -0.000000  -0.000000   0.000000   0.000000  -0.000000   0.000000
    26  C    0.000000   0.000000  -0.000000  -0.000000  -0.000000  -0.000000
    27  H    0.000000   0.000000  -0.000000   0.000000   0.000000   0.000000
    28  H   -0.000000   0.000000   0.000000   0.000000  -0.000000   0.000000
               7          8          9         10         11         12
     1  C   -0.000000   0.000000  -0.000000   0.000000   0.000000  -0.000000
     2  C    0.000000   0.000000   0.000000  -0.000000  -0.000000   0.000000
     3  H    0.000000  -0.000000  -0.000000  -0.000000  -0.000000   0.000000
     4  H   -0.000000  -0.000000  -0.000000   0.000000   0.000000  -0.000000
     5  C   -0.000000   0.000000   0.000000  -0.000000   0.000000   0.000000
     6  C   -0.000000  -0.000000   0.000000   0.000000  -0.000000  -0.000000
     7  H    0.000000  -0.000000   0.000000  -0.000000  -0.000000  -0.000000
     8  H   -0.000000   0.000000   0.000000  -0.000000  -0.000000   0.000000
     9  C    0.000000   0.000000  -0.000001  -0.000000   0.000000  -0.000000
    10  H   -0.000000  -0.000000  -0.000000   0.000000  -0.000000   0.000000
    11  H   -0.000000  -0.000000   0.000000  -0.000000   0.000000  -0.000000
    12  C   -0.000000   0.000000  -0.000000   0.000000  -0.000000   0.000000
    13  H    0.000000   0.000000   0.000000  -0.000000  -0.000000  -0.000000
    14  C    0.000000   0.000000   0.000000   0.000000   0.000000  -0.000000
    15  H   -0.000000   0.000000  -0.000000  -0.000000   0.000000  -0.000000
    16  C   -0.000000   0.000000   0.000000  -0.000000  -0.000000   0.000000
    17  H   -0.000000  -0.000000   0.000000   0.000000  -0.000000   0.000000
    18  H    0.000000  -0.000000   0.000000  -0.000000  -0.000000  -0.000000
    19  C   -0.000000  -0.000000  -0.000000   0.000000  -0.000000   0.000000
    20  H    0.000000   0.000000   0.000000  -0.000000   0.000000   0.000000
    21  C   -0.000000   0.000000   0.000000  -0.000000   0.000000  -0.000000
    22  H    0.000000  -0.000000   0.000000  -0.000000   0.000000   0.000000
    23  C   -0.000000   0.000000  -0.000000  -0.000000   0.000000  -0.000000
    24  H   -0.000000  -0.000000  -0.000000   0.000000  -0.000000  -0.000000
    25  H    0.000000  -0.000000   0.000000  -0.000000  -0.000000   0.000000
    26  C   -0.000000  -0.000000   0.000000   0.000000   0.000000  -0.000000
    27  H    0.000000  -0.000000  -0.000000   0.000000   0.000000  -0.000000
    28  H    0.000000  -0.000000   0.000000  -0.000000  -0.000000   0.000000
              13         14         15         16         17         18
     1  C   -0.000000  -0.000000   0.000000  -0.000000   0.000000  -0.000000
     2  C    0.000000  -0.000000  -0.000000   0.000000  -0.000000  -0.000000
     3  H    0.000000  -0.000000   0.000000   0.000000  -0.000000   0.000000
     4  H    0.000000  -0.000000   0.000000   0.000000   0.000000   0.000000
     5  C    0.000000  -0.000000   0.000000  -0.000000  -0.000000  -0.000000
     6  C   -0.000000   0.000000  -0.000000  -0.000000  -0.000000  -0.000000
     7  H    0.000000   0.000000  -0.000000  -0.000000  -0.000000   0.000000
     8  H    0.000000   0.000000   0.000000   0.000000  -0.000000  -0.000000
     9  C    0.000000   0.000000  -0.000000   0.000000   0.000000   0.000000
    10  H   -0.000000   0.000000  -0.000000  -0.000000   0.000000  -0.000000
    11  H   -0.000000   0.000000   0.000000  -0.000000  -0.000000  -0.000000
    12  C   -0.000000  -0.000000  -0.000000   0.000000   0.000000  -0.000000
    13  H   -0.000000   0.000000   0.000000  -0.000000  -0.000000   0.000000
    14  C    0.000000   0.000000   0.000000  -0.000000   0.000000  -0.000000
    15  H    0.000000   0.000000  -0.000000   0.000000  -0.000000   0.000000
    16  C   -0.000000  -0.000000   0.000000   0.000000  -0.000000  -0.000000
    17  H   -0.000000   0.000000  -0.000000  -0.000000  -0.000000   0.000000
    18  H    0.000000  -0.000000   0.000000  -0.000000   0.000000  -0.000000
    19  C   -0.000000  -0.000000   0.000000   0.000000   0.000000  -0.000000
    20  H   -0.000000   0.000000  -0.000000   0.000000  -0.000000   0.000000
    21  C   -0.000000   0.000000  -0.000000  -0.000000  -0.000000   0.000000
    22  H   -0.000000   0.000000  -0.000000   0.000000  -0.000000   0.000000
    23  C   -0.000000   0.000000   0.000000  -0.000000  -0.000000   0.000000
    24  H   -0.000000  -0.000000   0.000000  -0.000000   0.000000  -0.000000
    25  H    0.000000  -0.000000   0.000000  -0.000000   0.000000  -0.000000
    26  C   -0.000000   0.000000  -0.000000  -0.000000   0.000000   0.000000
    27  H   -0.000000   0.000000  -0.000000  -0.000000   0.000000   0.000000
[...]
     1  C   -0.000000   0.000000   0.000000   0.000000
     2  C   -0.000000   0.000000   0.000000  -0.000000
     3  H    0.000000  -0.000000  -0.000000  -0.000000
     4  H    0.000000  -0.000000   0.000000   0.000000
     5  C   -0.000000   0.000000   0.000000  -0.000000
     6  C    0.000000  -0.000000  -0.000000   0.000000
     7  H    0.000000  -0.000000  -0.000000   0.000000
     8  H   -0.000000  -0.000000  -0.000000  -0.000000
     9  C    0.000000   0.000000  -0.000000   0.000000
    10  H    0.000000   0.000000   0.000000   0.000000
    11  H   -0.000000  -0.000000  -0.000000  -0.000000
    12  C    0.000000  -0.000000  -0.000000  -0.000000
    13  H    0.000000  -0.000000  -0.000000   0.000000
    14  C    0.000000   0.000000   0.000000   0.000000
    15  H    0.000000  -0.000000  -0.000000   0.000000
    16  C   -0.000000   0.000000  -0.000000  -0.000000
    17  H   -0.000000   0.000000   0.000000   0.000000
    18  H   -0.000000   0.000000  -0.000000  -0.000000
    19  C    0.000000   0.000000   0.000000  -0.000000
    20  H    0.000000   0.000000  -0.000000   0.000000
    21  C   -0.000000  -0.000000   0.000000  -0.000000
    22  H    0.000000   0.000000  -0.000000   0.000000
    23  C    0.000000  -0.000000  -0.000000  -0.000000
    24  H    0.000000   0.000000   0.000000   0.000000
    25  H   -0.000000   0.000000  -0.000000  -0.000000
    26  C    0.000000  -0.000001   0.000000   0.000000
    27  H   -0.000000   0.000000   0.000000  -0.000000
    28  H   -0.000000   0.000000  -0.000000  -0.000000
 Mulliken charges and spin densities:
               1          2
     1  C   -0.204268  -0.000001
     2  C   -0.199238   0.000000
     3  H    0.148604   0.000000
     4  H    0.168754   0.000000
     5  C   -0.190952  -0.000000
     6  C   -0.196162  -0.000000
     7  H    0.166957   0.000000
     8  H    0.168695  -0.000000
     9  C   -0.210216  -0.000001
    10  H    0.131197   0.000000
    11  H    0.139839   0.000000
    12  C   -0.163011  -0.000000
    13  H    0.152506  -0.000000
    14  C   -0.203445   0.000001
    15  H    0.148604  -0.000000
    16  C   -0.192672   0.000000
    17  H    0.115769  -0.000000
    18  H    0.133068  -0.000000
    19  C   -0.190221   0.000000
    20  H    0.168020  -0.000000
    21  C   -0.161241   0.000000
    22  H    0.151858   0.000000
    23  C   -0.207929   0.000001
    24  H    0.139159  -0.000000
    25  H    0.131012  -0.000000
    26  C   -0.192109  -0.000000
    27  H    0.132896   0.000000
    28  H    0.114527   0.000000
 Sum of Mulliken charges =  -0.00000   0.00000
 Mulliken charges and spin densities with hydrogens summed into heavy atoms:
               1          2
     1  C   -0.055664  -0.000001
     2  C   -0.030484   0.000000
     5  C   -0.023996   0.000000
     6  C   -0.027467  -0.000000
     9  C    0.060821  -0.000000
    12  C   -0.010506  -0.000000
    14  C   -0.054841   0.000001
    16  C    0.056164   0.000000
    19  C   -0.022200  -0.000000
    21  C   -0.009383   0.000000
    23  C    0.062241   0.000000
    26  C    0.055314  -0.000000
 Electronic spatial extent (au):  <R**2>=           2345.7706
 Charge=             -0.0000 electrons
 Dipole moment (field-independent basis, Debye):
    X=             -0.0016    Y=             -0.0001    Z=             -0.0006  Tot=              0.0017
 Quadrupole moment (field-independent basis, Debye-Ang):
   XX=            -70.5566   YY=            -68.0602   ZZ=            -74.9297
   XY=             -3.2743   XZ=             -3.9621   YZ=             -1.7050
 Traceless Quadrupole moment (field-independent basis, Debye-Ang):
   XX=              0.6255   YY=              3.1220   ZZ=             -3.7475
   XY=             -3.2743   XZ=             -3.9621   YZ=             -1.7050
 Octapole moment (field-independent basis, Debye-Ang**2):
  XXX=             -0.0314  YYY=              0.0109  ZZZ=             -0.0039  XYY=              0.0121
  XXY=              0.0054  XXZ=              0.0002  XZZ=             -0.0064  YZZ=             -0.0015
  YYZ=              0.0031  XYZ=              0.0066
 Hexadecapole moment (field-independent basis, Debye-Ang**3):
 XXXX=          -2074.7386 YYYY=           -608.5262 ZZZZ=           -447.6856 XXXY=           -119.6749
 XXXZ=           -176.8363 YYYX=            -69.0610 YYYZ=             -9.9839 ZZZX=           -117.0182
 ZZZY=            -23.8703 XXYY=           -441.0016 XXZZ=           -439.8219 YYZZ=           -191.1639
 XXYZ=            -27.3409 YYXZ=            -41.6710 ZZXY=            -48.1959
 N-N= 6.700268505517D+02 E-N=-2.422656760577D+03  KE= 4.642885082720D+02
                          Isotropic Fermi Contact Couplings
        Atom                 a.u.       MegaHertz       Gauss      10(-4) cm-1
     1  C(13)             -0.00000      -0.00003      -0.00001      -0.00001
     2  C(13)             -0.00000      -0.00004      -0.00001      -0.00001
     3  H(1)               0.00000       0.00001       0.00000       0.00000
     4  H(1)               0.00000       0.00004       0.00002       0.00001
     5  C(13)             -0.00000      -0.00013      -0.00005      -0.00004
     6  C(13)              0.00000       0.00004       0.00001       0.00001
     7  H(1)               0.00000       0.00022       0.00008       0.00007
     8  H(1)              -0.00000      -0.00004      -0.00001      -0.00001
     9  C(13)             -0.00000      -0.00022      -0.00008      -0.00007
    10  H(1)               0.00000       0.00009       0.00003       0.00003
    11  H(1)               0.00000       0.00012       0.00004       0.00004
    12  C(13)              0.00000       0.00009       0.00003       0.00003
    13  H(1)              -0.00000      -0.00019      -0.00007      -0.00006
    14  C(13)              0.00000       0.00003       0.00001       0.00001
    15  H(1)              -0.00000      -0.00001      -0.00000      -0.00000
    16  C(13)              0.00000       0.00012       0.00004       0.00004
    17  H(1)              -0.00000      -0.00002      -0.00001      -0.00001
    18  H(1)              -0.00000      -0.00003      -0.00001      -0.00001
    19  C(13)              0.00000       0.00014       0.00005       0.00005
    20  H(1)              -0.00000      -0.00022      -0.00008      -0.00007
    21  C(13)             -0.00000      -0.00009      -0.00003      -0.00003
    22  H(1)               0.00000       0.00019       0.00007       0.00006
    23  C(13)              0.00000       0.00022       0.00008       0.00007
    24  H(1)              -0.00000      -0.00012      -0.00004      -0.00004
    25  H(1)              -0.00000      -0.00009      -0.00003      -0.00003
    26  C(13)             -0.00000      -0.00012      -0.00004      -0.00004
    27  H(1)               0.00000       0.00003       0.00001       0.00001
    28  H(1)               0.00000       0.00002       0.00001       0.00001
 --------------------------------------------------------
       Center         ----  Spin Dipole Couplings  ----
                      3XX-RR        3YY-RR        3ZZ-RR
 --------------------------------------------------------
     1   Atom       -0.000000      0.000000      0.000000
     2   Atom        0.000000     -0.000000     -0.000000
     3   Atom        0.000000      0.000000     -0.000000
     4   Atom       -0.000000     -0.000000      0.000000
     5   Atom       -0.000000     -0.000000      0.000001
     6   Atom       -0.000000      0.000000      0.000000
     7   Atom        0.000000     -0.000000      0.000000
     8   Atom        0.000000      0.000000     -0.000000
     9   Atom       -0.000000      0.000000     -0.000000
    10   Atom        0.000000      0.000000     -0.000000
    11   Atom        0.000000     -0.000000      0.000000
    12   Atom        0.000000      0.000001     -0.000001
    13   Atom       -0.000000      0.000000     -0.000000
    14   Atom        0.000000     -0.000000     -0.000000
    15   Atom       -0.000000     -0.000000      0.000000
    16   Atom        0.000000     -0.000000      0.000000
    17   Atom        0.000000     -0.000000      0.000000
    18   Atom        0.000000      0.000000     -0.000000
    19   Atom        0.000000      0.000000     -0.000001
    20   Atom       -0.000000      0.000000     -0.000000
    21   Atom       -0.000000     -0.000000      0.000001
    22   Atom        0.000000     -0.000000      0.000000
    23   Atom        0.000000     -0.000000      0.000000
    24   Atom       -0.000000      0.000000     -0.000000
    25   Atom       -0.000000     -0.000000      0.000000
    26   Atom       -0.000000      0.000000     -0.000000
    27   Atom       -0.000000     -0.000000      0.000000
    28   Atom       -0.000000      0.000000     -0.000000
 --------------------------------------------------------
                        XY            XZ            YZ
 --------------------------------------------------------
     1   Atom        0.000000     -0.000001      0.000000
     2   Atom        0.000000      0.000000      0.000000
     3   Atom       -0.000000      0.000000      0.000000
     4   Atom       -0.000000     -0.000000      0.000000
     5   Atom        0.000000     -0.000000     -0.000000
     6   Atom       -0.000000     -0.000000     -0.000000
     7   Atom        0.000000      0.000000     -0.000000
     8   Atom        0.000000      0.000000     -0.000000
     9   Atom       -0.000000      0.000000     -0.000000
    10   Atom        0.000000     -0.000000      0.000000
    11   Atom       -0.000000     -0.000000     -0.000000
    12   Atom        0.000000     -0.000000     -0.000000
    13   Atom        0.000000     -0.000000     -0.000000
    14   Atom       -0.000000      0.000001     -0.000000
    15   Atom        0.000000     -0.000000     -0.000000
    16   Atom       -0.000000     -0.000000     -0.000000
    17   Atom        0.000000      0.000000      0.000000
    18   Atom       -0.000000      0.000000     -0.000000
    19   Atom       -0.000000      0.000000      0.000000
    20   Atom       -0.000000     -0.000000      0.000000
    21   Atom       -0.000000      0.000000      0.000000
    22   Atom       -0.000000      0.000000      0.000000
    23   Atom        0.000000     -0.000000      0.000000
    24   Atom        0.000000      0.000000      0.000000
    25   Atom       -0.000000      0.000000     -0.000000
    26   Atom        0.000000      0.000000      0.000000
    27   Atom        0.000000     -0.000000      0.000000
    28   Atom       -0.000000     -0.000000     -0.000000
 --------------------------------------------------------


 ---------------------------------------------------------------------------------
              Anisotropic Spin Dipole Couplings in Principal Axis System
 ---------------------------------------------------------------------------------

       Atom             a.u.   MegaHertz   Gauss  10(-4) cm-1        Axes

              Baa    -0.0000    -0.000    -0.000    -0.000  0.7959 -0.1517  0.5862
     1 C(13)  Bbb     0.0000     0.000     0.000     0.000  0.1966  0.9804 -0.0132
              Bcc     0.0000     0.000     0.000     0.000 -0.5727  0.1258  0.8101
 
              Baa    -0.0000    -0.000    -0.000    -0.000 -0.5644  0.2806  0.7764
     2 C(13)  Bbb    -0.0000    -0.000    -0.000    -0.000 -0.0754  0.9190 -0.3870
              Bcc     0.0000     0.000     0.000     0.000  0.8221  0.2770  0.4975
 
              Baa    -0.0000    -0.000    -0.000    -0.000 -0.3304 -0.1802  0.9265
     3 H(1)   Bbb     0.0000     0.000     0.000     0.000  0.9438 -0.0707  0.3228
              Bcc     0.0000     0.000     0.000     0.000  0.0073  0.9811  0.1935
 
              Baa    -0.0000    -0.000    -0.000    -0.000  0.9467  0.2337  0.2216
     4 H(1)   Bbb    -0.0000    -0.000    -0.000    -0.000 -0.1681  0.9455 -0.2788
              Bcc     0.0000     0.000     0.000     0.000 -0.2747  0.2267  0.9344
 
              Baa    -0.0000    -0.000    -0.000    -0.000 -0.5819  0.8114  0.0549
     5 C(13)  Bbb    -0.0000    -0.000    -0.000    -0.000  0.8131  0.5793  0.0564
              Bcc     0.0000     0.000     0.000     0.000 -0.0140 -0.0775  0.9969
 
              Baa    -0.0000    -0.000    -0.000    -0.000  0.8095  0.2717  0.5205
     6 C(13)  Bbb     0.0000     0.000     0.000     0.000 -0.0527  0.9166 -0.3964
              Bcc     0.0000     0.000     0.000     0.000 -0.5848  0.2934  0.7563
 
              Baa    -0.0000    -0.000    -0.000    -0.000 -0.4772  0.8420  0.2516
     7 H(1)   Bbb     0.0000     0.000     0.000     0.000  0.8077  0.5330 -0.2520
              Bcc     0.0000     0.000     0.000     0.000  0.3463 -0.0829  0.9344
 
              Baa    -0.0000    -0.000    -0.000    -0.000 -0.2880  0.2176  0.9326
     8 H(1)   Bbb     0.0000     0.000     0.000     0.000 -0.1809  0.9439 -0.2762
              Bcc     0.0000     0.000     0.000     0.000  0.9404  0.2482  0.2325
 
              Baa    -0.0000    -0.000    -0.000    -0.000  0.8013  0.1590 -0.5768
     9 C(13)  Bbb    -0.0000    -0.000    -0.000    -0.000  0.4509  0.4731  0.7569
              Bcc     0.0000     0.000     0.000     0.000 -0.3932  0.8665 -0.3074
 
              Baa    -0.0000    -0.000    -0.000    -0.000  0.5128 -0.1812  0.8392
    10 H(1)   Bbb     0.0000     0.000     0.000     0.000 -0.5388  0.6930  0.4789
              Bcc     0.0000     0.000     0.000     0.000  0.6684  0.6977 -0.2577
 
              Baa    -0.0000    -0.000    -0.000    -0.000  0.5589  0.8234  0.0982
    11 H(1)   Bbb     0.0000     0.000     0.000     0.000 -0.5238  0.2588  0.8116
              Bcc     0.0000     0.000     0.000     0.000  0.6428 -0.5050  0.5759
 
              Baa    -0.0000    -0.000    -0.000    -0.000  0.1611  0.0551  0.9854
    12 C(13)  Bbb     0.0000     0.000     0.000     0.000  0.8900 -0.4396 -0.1209
              Bcc     0.0000     0.000     0.000     0.000  0.4265  0.8965 -0.1199
 
              Baa    -0.0000    -0.000    -0.000    -0.000  0.3686  0.2236  0.9023
    13 H(1)   Bbb    -0.0000    -0.000    -0.000    -0.000  0.9189 -0.2344 -0.3173
              Bcc     0.0000     0.000     0.000     0.000  0.1405  0.9461 -0.2919
 
              Baa    -0.0000    -0.000    -0.000    -0.000 -0.5844  0.1243  0.8019
    14 C(13)  Bbb    -0.0000    -0.000    -0.000    -0.000  0.1926  0.9812 -0.0117
              Bcc     0.0000     0.000     0.000     0.000  0.7883 -0.1476  0.5973
 
              Baa    -0.0000    -0.000    -0.000    -0.000 -0.0270  0.9832  0.1804
    15 H(1)   Bbb    -0.0000    -0.000    -0.000    -0.000  0.9403 -0.0363  0.3385
              Bcc     0.0000     0.000     0.000     0.000 -0.3394 -0.1788  0.9235
 
              Baa    -0.0000    -0.000    -0.000    -0.000  0.2831  0.9155  0.2858
    16 C(13)  Bbb    -0.0000    -0.000    -0.000    -0.000  0.6700 -0.4020  0.6241
              Bcc     0.0000     0.000     0.000     0.000 -0.6863 -0.0148  0.7272
 
              Baa    -0.0000    -0.000    -0.000    -0.000 -0.5115  0.8270 -0.2332
    17 H(1)   Bbb    -0.0000    -0.000    -0.000    -0.000 -0.6328 -0.1790  0.7533
              Bcc     0.0000     0.000     0.000     0.000  0.5813  0.5329  0.6149
 
              Baa    -0.0000    -0.000    -0.000    -0.000  0.5248  0.5908  0.6128
    18 H(1)   Bbb    -0.0000    -0.000    -0.000    -0.000 -0.6271 -0.2186  0.7477
              Bcc     0.0000     0.000     0.000     0.000 -0.5757  0.7766 -0.2558
 
              Baa    -0.0000    -0.000    -0.000    -0.000 -0.0344 -0.0890  0.9954
    19 C(13)  Bbb     0.0000     0.000     0.000     0.000  0.7801  0.6202  0.0824
              Bcc     0.0000     0.000     0.000     0.000 -0.6247  0.7794  0.0481
 
              Baa    -0.0000    -0.000    -0.000    -0.000  0.3249 -0.0955  0.9409
    20 H(1)   Bbb    -0.0000    -0.000    -0.000    -0.000  0.8146  0.5336 -0.2272
              Bcc     0.0000     0.000     0.000     0.000 -0.4804  0.8403  0.2512
 
              Baa    -0.0000    -0.000    -0.000    -0.000  0.4409  0.8896 -0.1193
    21 C(13)  Bbb    -0.0000    -0.000    -0.000    -0.000  0.8850 -0.4530 -0.1072
              Bcc     0.0000     0.000     0.000     0.000  0.1495  0.0583  0.9870
 
              Baa    -0.0000    -0.000    -0.000    -0.000  0.1528  0.9431 -0.2952
    22 H(1)   Bbb     0.0000     0.000     0.000     0.000  0.9219 -0.2436 -0.3013
              Bcc     0.0000     0.000     0.000     0.000  0.3561  0.2261  0.9067
 
              Baa    -0.0000    -0.000    -0.000    -0.000 -0.3942  0.8659 -0.3080
    23 C(13)  Bbb     0.0000     0.000     0.000     0.000  0.4503  0.4741  0.7566
              Bcc     0.0000     0.000     0.000     0.000  0.8011  0.1596 -0.5768
 
              Baa    -0.0000    -0.000    -0.000    -0.000  0.6480 -0.5104  0.5654
    24 H(1)   Bbb    -0.0000    -0.000    -0.000    -0.000 -0.5144  0.2541  0.8190
              Bcc     0.0000     0.000     0.000     0.000  0.5617  0.8216  0.0979
 
              Baa    -0.0000    -0.000    -0.000    -0.000  0.6621  0.7060 -0.2514
    25 H(1)   Bbb    -0.0000    -0.000    -0.000    -0.000 -0.5488  0.6852  0.4789
              Bcc     0.0000     0.000     0.000     0.000  0.5103 -0.1791  0.8411
 
              Baa    -0.0000    -0.000    -0.000    -0.000 -0.6861 -0.0143  0.7273
    26 C(13)  Bbb     0.0000     0.000     0.000     0.000  0.6686 -0.4063  0.6228
              Bcc     0.0000     0.000     0.000     0.000  0.2866  0.9136  0.2883
 
              Baa    -0.0000    -0.000    -0.000    -0.000 -0.5801  0.7736 -0.2550
    27 H(1)   Bbb     0.0000     0.000     0.000     0.000 -0.6142 -0.2098  0.7607
              Bcc     0.0000     0.000     0.000     0.000  0.5350  0.5980  0.5969
 
              Baa    -0.0000    -0.000    -0.000    -0.000  0.5794  0.5278  0.6211
    28 H(1)   Bbb     0.0000     0.000     0.000     0.000 -0.6601 -0.1432  0.7374
              Bcc     0.0000     0.000     0.000     0.000 -0.4781  0.8372 -0.2654
 

 ---------------------------------------------------------------------------------

 No NMR shielding tensors so no spin-rotation constants.
 Leave Link  601 at Mon Aug  3 22:12:48 2020, MaxMem=  6442450944 cpu:               8.0 elap:               0.4
 (Enter /scratch/scicomp/CentOS/7.3.1611/Haswell/software/Gaussian/g16/l9999.exe)
 1\1\GINC-ATLAS-205\SP\UwB97XD\def2TZVP\C12H16\BOCHEN\03-Aug-2020\0\\#p
  uwb97xd guess=mix def2tzvp # scrf=(iefpcm,solvent=Cyclohexane,read) n
 osym 6d 10f\\endo-2 xp-pcm for eta=3\\0,1\C,0,-3.120165,-0.43952,0.280
 19\C,0,-0.807998,-0.270483,-1.349166\H,0,-4.03926,-0.519446,0.849052\H
 ,0,0.117969,-0.196755,-1.906627\C,0,1.221266,1.438778,0.865571\C,0,0.8
 07998,0.270483,1.349166\H,0,0.634256,2.337167,1.015854\H,0,-0.117969,0
 .196755,1.906627\C,0,1.635901,-0.972988,1.195334\H,0,2.239675,-1.08962
 6,2.104856\H,0,0.987632,-1.849296,1.145396\C,0,2.482134,1.535015,0.127
 997\H,0,2.88292,2.517315,-0.091872\C,0,3.120165,0.43952,-0.28019\H,0,4
 .03926,0.519446,-0.849052\C,0,2.551272,-0.930669,-0.031151\H,0,1.99168
 2,-1.236938,-0.923478\H,0,3.354963,-1.660578,0.081874\C,0,-1.221266,-1
 .438778,-0.865571\H,0,-0.634256,-2.337167,-1.015854\C,0,-2.482134,-1.5
 35015,-0.127997\H,0,-2.88292,-2.517315,0.091872\C,0,-1.635901,0.972988
 ,-1.195334\H,0,-0.987632,1.849296,-1.145396\H,0,-2.239675,1.089626,-2.
 104856\C,0,-2.551272,0.930669,0.031151\H,0,-3.354963,1.660578,-0.08187
 4\H,0,-1.991682,1.236938,0.923479\\Version=ES64L-G16RevB.01\HF=-466.81
 25892\S2=0.\S2-1=0.\S2A=0.\RMSD=9.537e-09\Dipole=-0.0006197,-0.0000265
 ,-0.0002505\Quadrupole=0.4650778,2.3210983,-2.7861761,-2.4343982,-2.94
 57278,-1.2676279\PG=CI [X(C12H16)]\\@


 I LOVE MANKIND - IT'S PEOPLE I CAN'T STAND.
     -- LINUS OF PEANUTS
 Job cpu time:       0 days  2 hours  4 minutes 50.2 seconds.
 Elapsed time:       0 days  0 hours  5 minutes 15.3 seconds.
 File lengths (MBytes):  RWF=    647 Int=      0 D2E=      0 Chk=     24 Scr=      1
 Normal termination of Gaussian 16 at Mon Aug  3 22:12:48 2020.
