 Entering Gaussian System, Link 0=g16
 Input=meso-TS_55_2_xp-Vc.com
 Output=meso-TS_55_2_xp-Vc.log
 Initial command:
 /scratch/scicomp/CentOS/7.3.1611/Haswell/software/Gaussian/g16/l1.exe "/scratch/bochen/cyclohexadiene-dimerization/wb97xd-def2tzvp/xp-pcm/meso/Gau-82666.inp" -scrdir="/scratch/bochen/cyclohexadiene-dimerization/wb97xd-def2tzvp/xp-pcm/meso/"
 Entering Link 1 = /scratch/scicomp/CentOS/7.3.1611/Haswell/software/Gaussian/g16/l1.exe PID=     82667.
  
 Copyright (c) 1988-2017, Gaussian, Inc.  All Rights Reserved.
  
 This is part of the Gaussian(R) 16 program.  It is based on
 the Gaussian(R) 09 system (copyright 2009, Gaussian, Inc.),
 the Gaussian(R) 03 system (copyright 2003, Gaussian, Inc.),
 the Gaussian(R) 98 system (copyright 1998, Gaussian, Inc.),
 the Gaussian(R) 94 system (copyright 1995, Gaussian, Inc.),
 the Gaussian 92(TM) system (copyright 1992, Gaussian, Inc.),
 the Gaussian 90(TM) system (copyright 1990, Gaussian, Inc.),
 the Gaussian 88(TM) system (copyright 1988, Gaussian, Inc.),
 the Gaussian 86(TM) system (copyright 1986, Carnegie Mellon
 University), and the Gaussian 82(TM) system (copyright 1983,
 Carnegie Mellon University). Gaussian is a federally registered
 trademark of Gaussian, Inc.
  
 This software contains proprietary and confidential information,
 including trade secrets, belonging to Gaussian, Inc.
  
 This software is provided under written license and may be
 used, copied, transmitted, or stored only in accord with that
 written license.
  
 The following legend is applicable only to US Government
 contracts under FAR:
  
                    RESTRICTED RIGHTS LEGEND
  
 Use, reproduction and disclosure by the US Government is
 subject to restrictions as set forth in subparagraphs (a)
 and (c) of the Commercial Computer Software - Restricted
 Rights clause in FAR 52.227-19.
  
 Gaussian, Inc.
 340 Quinnipiac St., Bldg. 40, Wallingford CT 06492
  
  
 ---------------------------------------------------------------
 Warning -- This program may not be used in any manner that
 competes with the business of Gaussian, Inc. or will provide
 assistance to any competitor of Gaussian, Inc.  The licensee
 of this program is prohibited from giving any competitor of
 Gaussian, Inc. access to this program.  By using this program,
 the user acknowledges that Gaussian, Inc. is engaged in the
 business of creating and licensing software in the field of
 computational chemistry and represents and warrants to the
 licensee that it is not a competitor of Gaussian, Inc. and that
 it will not use this program in any manner prohibited above.
 ---------------------------------------------------------------
  

 Cite this work as:
 Gaussian 16, Revision B.01,
 M. J. Frisch, G. W. Trucks, H. B. Schlegel, G. E. Scuseria, 
 M. A. Robb, J. R. Cheeseman, G. Scalmani, V. Barone, 
 G. A. Petersson, H. Nakatsuji, X. Li, M. Caricato, A. V. Marenich, 
 J. Bloino, B. G. Janesko, R. Gomperts, B. Mennucci, H. P. Hratchian, 
 J. V. Ortiz, A. F. Izmaylov, J. L. Sonnenberg, D. Williams-Young, 
 F. Ding, F. Lipparini, F. Egidi, J. Goings, B. Peng, A. Petrone, 
 T. Henderson, D. Ranasinghe, V. G. Zakrzewski, J. Gao, N. Rega, 
 G. Zheng, W. Liang, M. Hada, M. Ehara, K. Toyota, R. Fukuda, 
 J. Hasegawa, M. Ishida, T. Nakajima, Y. Honda, O. Kitao, H. Nakai, 
 T. Vreven, K. Throssell, J. A. Montgomery, Jr., J. E. Peralta, 
 F. Ogliaro, M. J. Bearpark, J. J. Heyd, E. N. Brothers, K. N. Kudin, 
 V. N. Staroverov, T. A. Keith, R. Kobayashi, J. Normand, 
 K. Raghavachari, A. P. Rendell, J. C. Burant, S. S. Iyengar, 
 J. Tomasi, M. Cossi, J. M. Millam, M. Klene, C. Adamo, R. Cammi, 
 J. W. Ochterski, R. L. Martin, K. Morokuma, O. Farkas, 
 J. B. Foresman, and D. J. Fox, Gaussian, Inc., Wallingford CT, 2016.
 
 ******************************************
 Gaussian 16:  ES64L-G16RevB.01 20-Dec-2017
                 3-Aug-2020 
 ******************************************
 %chk=meso-TS_55_2_xp-12.chk
 %nproc=24
 Will use up to   24 processors via shared memory.
 %mem=48GB
 ----------------------------------------------------------------------
 #p uwb97xd guess=mix def2tzvp # scrf=(iefpcm,solvent=Cyclohexane,read)
  nosym guess=only pop=none
 ----------------------------------------------------------------------
 1/38=1,40=2,172=1/1;
 2/12=2,15=1,17=6,18=5,40=1/2;
 3/5=44,7=101,11=2,25=1,30=1,70=2203,72=17,74=-58,89=1,116=2/1,2;
 4/13=-1/1;
 99/5=2/99;
 Leave Link    1 at Mon Aug  3 17:22:18 2020, MaxMem=  6442450944 cpu:               1.6 elap:               0.1
 (Enter /scratch/scicomp/CentOS/7.3.1611/Haswell/software/Gaussian/g16/l101.exe)
 -----------------------
 endo-2 xp-pcm for eta=3
 -----------------------
 Symbolic Z-matrix:
 Charge =  0 Multiplicity = 1
 6                    -3.12716  -0.44139   0.26581 
 6                    -0.74278  -0.25368  -1.25379 
 1                    -4.06659  -0.53163   0.79885 
 1                     0.20497  -0.1725   -1.77163 
 6                     1.17538   1.42747   0.80302 
 6                     0.74278   0.25368   1.25379 
 1                     0.58291   2.32407   0.941 
 1                    -0.20497   0.1725    1.77163 
 6                     1.57459  -0.98981   1.12726 
 1                     2.11611  -1.12215   2.07269 
 1                     0.92754  -1.86179   1.02529 
 6                     2.46088   1.53095   0.11177 
 1                     2.86025   2.51601  -0.0982 
 6                     3.12716   0.44139  -0.26581 
 1                     4.06659   0.53163  -0.79885 
 6                     2.57273  -0.93795  -0.03439 
 1                     2.09129  -1.274    -0.96099 
 1                     3.38476  -1.64457   0.14749 
 6                    -1.17538  -1.42747  -0.80302 
 1                    -0.58291  -2.32407  -0.941 
 6                    -2.46088  -1.53095  -0.11177 
 1                    -2.86025  -2.51601   0.0982 
 6                    -1.57459   0.98981  -1.12726 
 1                    -0.92754   1.86179  -1.02529 
 1                    -2.11611   1.12215  -2.07269 
 6                    -2.57273   0.93795   0.03439 
 1                    -3.38476   1.64457  -0.14749 
 1                    -2.09129   1.274     0.96099 
 
 ITRead=  0  0  0  0  0  0  0  0  0  0  0  0  0  0  0  0  0  0  0  0
 ITRead=  0  0  0  0  0  0  0  0
 MicOpt= -1 -1 -1 -1 -1 -1 -1 -1 -1 -1 -1 -1 -1 -1 -1 -1 -1 -1 -1 -1
 MicOpt= -1 -1 -1 -1 -1 -1 -1 -1
 NAtoms=     28 NQM=       28 NQMF=       0 NMMI=      0 NMMIF=      0
                NMic=       0 NMicF=      0.
                    Isotopes and Nuclear Properties:
 (Nuclear quadrupole moments (NQMom) in fm**2, nuclear magnetic moments (NMagM)
  in nuclear magnetons)

  Atom         1           2           3           4           5           6           7           8           9          10
 IAtWgt=          12          12           1           1          12          12           1           1          12           1
 AtmWgt=  12.0000000  12.0000000   1.0078250   1.0078250  12.0000000  12.0000000   1.0078250   1.0078250  12.0000000   1.0078250
 NucSpn=           0           0           1           1           0           0           1           1           0           1
 AtZEff=  -0.0000000  -0.0000000  -0.0000000  -0.0000000  -0.0000000  -0.0000000  -0.0000000  -0.0000000  -0.0000000  -0.0000000
 NQMom=    0.0000000   0.0000000   0.0000000   0.0000000   0.0000000   0.0000000   0.0000000   0.0000000   0.0000000   0.0000000
 NMagM=    0.0000000   0.0000000   2.7928460   2.7928460   0.0000000   0.0000000   2.7928460   2.7928460   0.0000000   2.7928460
 AtZNuc=   6.0000000   6.0000000   1.0000000   1.0000000   6.0000000   6.0000000   1.0000000   1.0000000   6.0000000   1.0000000

  Atom        11          12          13          14          15          16          17          18          19          20
 IAtWgt=           1          12           1          12           1          12           1           1          12           1
 AtmWgt=   1.0078250  12.0000000   1.0078250  12.0000000   1.0078250  12.0000000   1.0078250   1.0078250  12.0000000   1.0078250
 NucSpn=           1           0           1           0           1           0           1           1           0           1
 AtZEff=  -0.0000000  -0.0000000  -0.0000000  -0.0000000  -0.0000000  -0.0000000  -0.0000000  -0.0000000  -0.0000000  -0.0000000
 NQMom=    0.0000000   0.0000000   0.0000000   0.0000000   0.0000000   0.0000000   0.0000000   0.0000000   0.0000000   0.0000000
 NMagM=    2.7928460   0.0000000   2.7928460   0.0000000   2.7928460   0.0000000   2.7928460   2.7928460   0.0000000   2.7928460
 AtZNuc=   1.0000000   6.0000000   1.0000000   6.0000000   1.0000000   6.0000000   1.0000000   1.0000000   6.0000000   1.0000000

  Atom        21          22          23          24          25          26          27          28
 IAtWgt=          12           1          12           1           1          12           1           1
 AtmWgt=  12.0000000   1.0078250  12.0000000   1.0078250   1.0078250  12.0000000   1.0078250   1.0078250
 NucSpn=           0           1           0           1           1           0           1           1
 AtZEff=  -0.0000000  -0.0000000  -0.0000000  -0.0000000  -0.0000000  -0.0000000  -0.0000000  -0.0000000
 NQMom=    0.0000000   0.0000000   0.0000000   0.0000000   0.0000000   0.0000000   0.0000000   0.0000000
 NMagM=    0.0000000   2.7928460   0.0000000   2.7928460   2.7928460   0.0000000   2.7928460   2.7928460
 AtZNuc=   6.0000000   1.0000000   6.0000000   1.0000000   1.0000000   6.0000000   1.0000000   1.0000000
 Leave Link  101 at Mon Aug  3 17:22:18 2020, MaxMem=  6442450944 cpu:               2.4 elap:               0.1
 (Enter /scratch/scicomp/CentOS/7.3.1611/Haswell/software/Gaussian/g16/l202.exe)
                          Input orientation:                          
 ---------------------------------------------------------------------
 Center     Atomic      Atomic             Coordinates (Angstroms)
 Number     Number       Type             X           Y           Z
 ---------------------------------------------------------------------
      1          6           0       -3.127160   -0.441387    0.265808
      2          6           0       -0.742781   -0.253682   -1.253790
      3          1           0       -4.066590   -0.531634    0.798854
      4          1           0        0.204971   -0.172502   -1.771631
      5          6           0        1.175378    1.427467    0.803019
      6          6           0        0.742781    0.253682    1.253790
      7          1           0        0.582914    2.324068    0.940997
      8          1           0       -0.204971    0.172502    1.771631
      9          6           0        1.574588   -0.989808    1.127258
     10          1           0        2.116105   -1.122154    2.072691
     11          1           0        0.927535   -1.861790    1.025285
     12          6           0        2.460878    1.530950    0.111768
     13          1           0        2.860246    2.516008   -0.098202
     14          6           0        3.127160    0.441387   -0.265808
     15          1           0        4.066590    0.531634   -0.798854
     16          6           0        2.572730   -0.937949   -0.034385
     17          1           0        2.091291   -1.273998   -0.960989
     18          1           0        3.384763   -1.644565    0.147485
     19          6           0       -1.175378   -1.427467   -0.803019
     20          1           0       -0.582914   -2.324068   -0.940997
     21          6           0       -2.460878   -1.530950   -0.111768
     22          1           0       -2.860246   -2.516008    0.098202
     23          6           0       -1.574588    0.989808   -1.127258
     24          1           0       -0.927535    1.861790   -1.025285
     25          1           0       -2.116105    1.122154   -2.072691
     26          6           0       -2.572730    0.937949    0.034385
     27          1           0       -3.384763    1.644565   -0.147485
     28          1           0       -2.091291    1.273998    0.960989
 ---------------------------------------------------------------------
                    Distance matrix (angstroms):
                    1          2          3          4          5
     1  C    0.000000
     2  C    2.833668   0.000000
     3  H    1.083887   3.916416   0.000000
     4  H    3.914914   1.083044   4.998260   0.000000
     5  C    4.721551   3.276593   5.596099   3.182831   0.000000
     6  C    4.054093   2.958424   4.894256   3.102264   1.329701
     7  H    4.676352   3.635843   5.458308   3.705948   1.083487
     8  H    3.344182   3.102264   4.044033   3.583544   2.102025
     9  C    4.811372   3.403156   5.669273   3.308685   2.471380
    10  H    5.587495   4.471348   6.340118   4.396940   2.999600
    11  H    4.362901   3.251177   5.173188   3.346421   3.306061
    12  C    5.927901   3.913194   6.879984   3.396772   1.463232
    13  H    6.687879   4.689176   7.620623   4.132667   2.199068
    14  C    6.338645   4.054093   7.336914   3.344182   2.433968
    15  H    7.336914   4.894256   8.356544   4.044033   3.424561
    16  C    5.729349   3.598303   6.703727   3.034834   2.872113
    17  H    5.424989   3.026341   6.447298   2.329944   3.353883
    18  H    6.623200   4.575450   7.562113   3.995129   3.840376
    19  C    2.433968   1.329701   3.424561   2.102025   4.031880
    20  H    3.387337   2.099975   4.286712   2.437202   4.495242
    21  C    1.331782   2.426414   2.099089   3.421590   4.776131
    22  H    2.098425   3.380778   2.425679   4.287639   5.686301
    23  C    2.529710   1.501393   3.497823   2.221038   3.388189
    24  H    3.436553   2.135783   4.348520   2.444984   2.820208
    25  H    2.989226   2.109394   3.845150   2.674727   4.381414
    26  C    1.504499   2.535368   2.230629   3.494341   3.857297
    27  H    2.142047   3.436178   2.469066   4.338868   4.663204
    28  H    2.121049   3.009573   2.681119   3.851285   3.274085
                    6          7          8          9         10
     6  C    0.000000
     7  H    2.099975   0.000000
     8  H    1.083044   2.437202   0.000000
     9  C    1.501393   3.464085   2.221038   0.000000
    10  H    2.109394   3.938001   2.674727   1.097543   0.000000
    11  H    2.135783   4.200866   2.444984   1.090609   1.748376
    12  C    2.426414   2.200774   3.421590   2.858488   3.317084
    13  H    3.380778   2.510581   4.287639   3.930065   4.301482
    14  C    2.833668   3.387337   3.914914   2.529710   2.989226
    15  H    3.916416   4.286712   4.998260   3.497823   3.845150
    16  C    2.535368   3.943538   3.494341   1.532446   2.163841
    17  H    3.009573   4.340372   3.851285   2.169913   3.037579
    18  H    3.436178   4.922405   4.338868   2.159953   2.364069
    19  C    3.276593   4.495242   3.182831   3.388189   4.381414
    20  H    3.635843   5.148420   3.705948   3.273033   4.220381
    21  C    3.913194   5.023360   3.396772   4.255938   5.088000
    22  H    4.689176   5.999332   4.132667   4.801666   5.532224
    23  C    3.403156   3.273033   3.308685   4.349601   5.321773
    24  H    3.251177   2.522186   3.346421   4.361843   5.269262
    25  H    4.471348   4.220381   4.396940   5.321773   6.335038
    26  C    3.598303   3.563897   3.034834   4.702219   5.512158
    27  H    4.575450   4.170009   3.995129   5.758477   6.545492
    28  H    3.026341   2.873050   2.329944   4.311743   4.967857
                   11         12         13         14         15
    11  H    0.000000
    12  C    3.833580   0.000000
    13  H    4.915558   1.083477   0.000000
    14  C    3.436553   1.331782   2.098425   0.000000
    15  H    4.348520   2.099089   2.425679   1.083887   0.000000
    16  C    2.164035   2.475749   3.466491   1.504499   2.230629
    17  H    2.375944   3.025745   3.962302   2.121049   2.681119
    18  H    2.618337   3.307376   4.200696   2.142047   2.469066
    19  C    2.820208   4.776131   5.686301   4.721551   5.596099
    20  H    2.522186   5.023360   5.999332   4.676352   5.458308
    21  C    3.589385   5.800766   6.685238   5.927901   6.879984
    22  H    3.954083   6.685238   7.621272   6.687879   7.620623
    23  C    4.361843   4.255938   4.801666   4.811372   5.669273
    24  H    4.638014   3.589385   3.954083   4.362901   5.173188
    25  H    5.269262   5.088000   5.532224   5.587495   6.340118
    26  C    4.590455   5.069009   5.659070   5.729349   6.703727
    27  H    5.680302   5.852490   6.305710   6.623200   7.562113
    28  H    4.353230   4.637827   5.213654   5.424989   6.447298
                   16         17         18         19         20
    16  C    0.000000
    17  H    1.096954   0.000000
    18  H    1.091687   1.743303   0.000000
    19  C    3.857297   3.274085   4.663204   0.000000
    20  H    3.563897   2.873050   4.170009   1.083487   0.000000
    21  C    5.069009   4.637827   5.852490   1.463232   2.200774
    22  H    5.659070   5.213654   6.305710   2.199068   2.510581
    23  C    4.702219   4.311743   5.758477   2.471380   3.464085
    24  H    4.590455   4.353230   5.680302   3.306061   4.200866
    25  H    5.512158   4.967857   6.545492   2.999600   3.938001
    26  C    5.477178   5.257050   6.494143   2.872113   3.943538
    27  H    6.494143   6.258352   7.532056   3.840376   4.922405
    28  H    5.257050   5.261205   6.258352   3.353883   4.340372
                   21         22         23         24         25
    21  C    0.000000
    22  H    1.083477   0.000000
    23  C    2.858488   3.930065   0.000000
    24  H    3.833580   4.915558   1.090609   0.000000
    25  H    3.317084   4.301482   1.097543   1.748376   0.000000
    26  C    2.475749   3.466491   1.532446   2.164035   2.163841
    27  H    3.307376   4.200696   2.159953   2.618337   2.364069
    28  H    3.025745   3.962302   2.169913   2.375944   3.037579
                   26         27         28
    26  C    0.000000
    27  H    1.091687   0.000000
    28  H    1.096954   1.743303   0.000000
 Symmetry turned off by external request.
 Stoichiometry    C12H16
 Framework group  CI[X(C12H16)]
 Deg. of freedom    39
 Full point group                 CI      NOp   2
 Rotational constants (GHZ):           1.7477464           0.5912905           0.5348176
 Leave Link  202 at Mon Aug  3 17:22:18 2020, MaxMem=  6442450944 cpu:               0.3 elap:               0.0
 (Enter /scratch/scicomp/CentOS/7.3.1611/Haswell/software/Gaussian/g16/l301.exe)
 Standard basis: def2TZVP (5D, 7F)
 Ernie: Thresh=  0.10000D-02 Tol=  0.10000D-05 Strict=F.
   468 basis functions,   740 primitive gaussians,   528 cartesian basis functions
    44 alpha electrons       44 beta electrons
       nuclear repulsion energy       675.2444009835 Hartrees.
 IExCor= 4639 DFT=T Ex+Corr=wB97XD ExCW=0 ScaHFX=  1.000000
 ScaDFX=  1.000000  1.000000  1.000000  1.000000 ScalE2=  1.000000  1.000000
 IRadAn=      5 IRanWt=     -1 IRanGd=            0 ICorTp=0 IEmpDi=121
 HFx  wShort=  0.000000 wLong=  0.200000 cFull=  0.222036 cShort=  0.000000 cLong=  0.777964
 DFx  wShort=  0.000000 wLong=  0.200000 cFull=  0.000000 cShort=  0.000000 cLong=  1.000000
 NAtoms=   28 NActive=   28 NUniq=   28 SFac= 1.00D+00 NAtFMM=   60 NAOKFM=F Big=F
 Integral buffers will be    131072 words long.
 Raffenetti 2 integral format.
 Two-electron integral symmetry is turned off.
 R6Disp:  Grimme-D2 Dispersion energy=       -0.0220448925 Hartrees.
 Nuclear repulsion after empirical dispersion term =      675.2223560911 Hartrees.
 Using the following non-standard input for PCM:
 qrep pcmdoc geomview  nodis nocav g03defaults tsare=0.075
 Warning! Using old PCM defaults because the g03defaults keyword was found.
 These settings can be overridden by following keywords.
 nsfe=28
 NVESolv=36  SolvMW=84.1595   Rsolv=2.815
 eps=2.0165 RhoS=0.7781
 --- end of non-standard input.
 Reading user-defined spheres from input:
 ISph  on   Nord    Re0     Alpha      Xe            Ye            Ze
 --- end of user-defined spheres data.
 ------------------------------------------------------------------------------
 Polarizable Continuum Model (PCM)
 =================================
 Model                : PCM.
 Atomic radii         : UA0 (Simple United Atom Topological Model).
 Polarization charges : Total charges.
 Charge compensation  : None.
 Solution method      : On-the-fly selection.
 Cavity type          : SES (Solvent Excluding Surface) (Alpha=1.000).
 Cavity algorithm     : GePol (RMin=0.200 OFac=0.890).
                        User-defined sphere list used, NSphG=   28.
                        Tesserae with average area of 0.075 Ang**2.
                        Smoothing algorithm: None.
                        Polarization charges: point-like.
                        Self-potential: constant (ISelfS= 1).
                        Self-field    : global E.n sum rule (ISelfD= 3).
 Solvent              : CycloHexane, Eps=   2.016500 Eps(inf)=   2.035188
                        RSolv=   2.815000 Ang.
 ------------------------------------------------------------------------------
 GePol: Number of generator spheres                  =      28
 GePol: Total number of spheres                      =     185
 GePol: Number of exposed spheres                    =     129 ( 69.73%)
 GePol: Number of tesserae                           =    4650
 GePol: Average area of tesserae                     =       0.05 Ang**2
 GePol: Minimum area of tessera                      =   0.10D-02 Ang**2
 GePol: Maximum area of tessera                      =    0.12395 Ang**2
 GePol: Number of small tesserae                     =       0
 GePol: Fraction of small tesserae (<1% of avg)      =       0.00%
 GePol: Total count of vertices                      =   16490
 GePol: Maximum number of vertices in a tessera      =       8
 GePol: Cavity surface area                          =    222.647 Ang**2
 GePol: Cavity volume                                =    253.543 Ang**3
 Leave Link  301 at Mon Aug  3 17:22:19 2020, MaxMem=  6442450944 cpu:               8.1 elap:               0.4
 (Enter /scratch/scicomp/CentOS/7.3.1611/Haswell/software/Gaussian/g16/l302.exe)
 NPDir=0 NMtPBC=     1 NCelOv=     1 NCel=       1 NClECP=     1 NCelD=      1
         NCelK=      1 NCelE2=     1 NClLst=     1 CellRange=     0.0.
 One-electron integrals computed using PRISM.
   1 Symmetry operations used in ECPInt.
 ECPInt:  NShTT=   19306 NPrTT=   56928 LenC2=   18475 LenP2D=   41881.
 LDataN:  DoStor=T MaxTD1= 6 Len=  172
 NBasis=   468 RedAO= T EigKep=  2.45D-05  NBF=   468
 NBsUse=   468 1.00D-06 EigRej= -1.00D+00 NBFU=   468
 Precomputing XC quadrature grid using
 IXCGrd= 4 IRadAn=           5 IRanWt=          -1 IRanGd=           0 AccXCQ= 0.00D+00.
 Generated NRdTot=       0 NPtTot=           0 NUsed=           0 NTot=          32
 NSgBfM=   526   526   526   526   526 MxSgAt=    28 MxSgA2=    28.
 Leave Link  302 at Mon Aug  3 17:22:19 2020, MaxMem=  6442450944 cpu:              11.8 elap:               0.5
 (Enter /scratch/scicomp/CentOS/7.3.1611/Haswell/software/Gaussian/g16/l401.exe)
 ExpMin= 9.52D-02 ExpMax= 1.36D+04 ExpMxC= 4.63D+02 IAcc=3 IRadAn=         5 AccDes= 0.00D+00
 Harris functional with IExCor= 4639 and IRadAn=       5 diagonalized for initial guess.
 HarFok:  IExCor= 4639 AccDes= 0.00D+00 IRadAn=         5 IDoV= 1 UseB2=F ITyADJ=14
 ICtDFT=  3500011 ScaDFX=  1.000000  1.000000  1.000000  1.000000
 FoFCou: FMM=F IPFlag=           0 FMFlag=      100000 FMFlg1=           0
         NFxFlg=           0 DoJE=T BraDBF=F KetDBF=T FulRan=T
         wScrn=  0.000000 ICntrl=       500 IOpCl=  0 I1Cent=   200000004 NGrid=           0
         NMat0=    1 NMatS0=      1 NMatT0=    0 NMatD0=    1 NMtDS0=    0 NMtDT0=    0
 Symmetry not used in FoFCou.
 Harris En= -444.635372070846    
 JPrj=0 DoOrth=F DoCkMO=T.
 Mixing orbitals, IMix= 1 IMixAn=  0 NRI=1 NE=   44 Coef=  7.07106781D-01  7.07106781D-01
 Mixing orbitals, IMix= 1 IMixAn=  0 NRI=1 NE=   44 Coef= -7.07106781D-01  7.07106781D-01
 Initial guess <Sx>= 0.0000 <Sy>= 0.0000 <Sz>= 0.0000 <S**2>= 1.0000 S= 0.6180
 Leave Link  401 at Mon Aug  3 17:22:21 2020, MaxMem=  6442450944 cpu:              47.4 elap:               2.0
 (Enter /scratch/scicomp/CentOS/7.3.1611/Haswell/software/Gaussian/g16/l9999.exe)

 This type of calculation cannot be archived.


 DON'T WORRY CHARLIE BROWN...WE LEARN MORE FROM LOSING 
 THAN WE DO FROM WINNING.
 THEN THAT MAKES ME THE SMARTEST PERSON IN THE WORLD...
 CHARLES SCHULZ 'PEANUTS'
 Job cpu time:       0 days  0 hours  1 minutes 12.6 seconds.
 Elapsed time:       0 days  0 hours  0 minutes  3.3 seconds.
 File lengths (MBytes):  RWF=    397 Int=      0 D2E=      0 Chk=      1 Scr=      1
 Normal termination of Gaussian 16 at Mon Aug  3 17:22:21 2020.
 Initial command:
 /scratch/scicomp/CentOS/7.3.1611/Haswell/software/Gaussian/g16/l1.exe "/scratch/bochen/cyclohexadiene-dimerization/wb97xd-def2tzvp/xp-pcm/meso/Gau-82666.inp" -scrdir="/scratch/bochen/cyclohexadiene-dimerization/wb97xd-def2tzvp/xp-pcm/meso/"
 Entering Link 1 = /scratch/scicomp/CentOS/7.3.1611/Haswell/software/Gaussian/g16/l1.exe PID=     82829.
  
 Copyright (c) 1988-2017, Gaussian, Inc.  All Rights Reserved.
  
 This is part of the Gaussian(R) 16 program.  It is based on
 the Gaussian(R) 09 system (copyright 2009, Gaussian, Inc.),
 the Gaussian(R) 03 system (copyright 2003, Gaussian, Inc.),
 the Gaussian(R) 98 system (copyright 1998, Gaussian, Inc.),
 the Gaussian(R) 94 system (copyright 1995, Gaussian, Inc.),
 the Gaussian 92(TM) system (copyright 1992, Gaussian, Inc.),
 the Gaussian 90(TM) system (copyright 1990, Gaussian, Inc.),
 the Gaussian 88(TM) system (copyright 1988, Gaussian, Inc.),
 the Gaussian 86(TM) system (copyright 1986, Carnegie Mellon
 University), and the Gaussian 82(TM) system (copyright 1983,
 Carnegie Mellon University). Gaussian is a federally registered
 trademark of Gaussian, Inc.
  
 This software contains proprietary and confidential information,
 including trade secrets, belonging to Gaussian, Inc.
  
 This software is provided under written license and may be
 used, copied, transmitted, or stored only in accord with that
 written license.
  
 The following legend is applicable only to US Government
 contracts under FAR:
  
                    RESTRICTED RIGHTS LEGEND
  
 Use, reproduction and disclosure by the US Government is
 subject to restrictions as set forth in subparagraphs (a)
 and (c) of the Commercial Computer Software - Restricted
 Rights clause in FAR 52.227-19.
  
 Gaussian, Inc.
 340 Quinnipiac St., Bldg. 40, Wallingford CT 06492
  
  
 ---------------------------------------------------------------
 Warning -- This program may not be used in any manner that
 competes with the business of Gaussian, Inc. or will provide
 assistance to any competitor of Gaussian, Inc.  The licensee
 of this program is prohibited from giving any competitor of
 Gaussian, Inc. access to this program.  By using this program,
 the user acknowledges that Gaussian, Inc. is engaged in the
 business of creating and licensing software in the field of
 computational chemistry and represents and warrants to the
 licensee that it is not a competitor of Gaussian, Inc. and that
 it will not use this program in any manner prohibited above.
 ---------------------------------------------------------------
  

 Cite this work as:
 Gaussian 16, Revision B.01,
 M. J. Frisch, G. W. Trucks, H. B. Schlegel, G. E. Scuseria, 
 M. A. Robb, J. R. Cheeseman, G. Scalmani, V. Barone, 
 G. A. Petersson, H. Nakatsuji, X. Li, M. Caricato, A. V. Marenich, 
 J. Bloino, B. G. Janesko, R. Gomperts, B. Mennucci, H. P. Hratchian, 
 J. V. Ortiz, A. F. Izmaylov, J. L. Sonnenberg, D. Williams-Young, 
 F. Ding, F. Lipparini, F. Egidi, J. Goings, B. Peng, A. Petrone, 
 T. Henderson, D. Ranasinghe, V. G. Zakrzewski, J. Gao, N. Rega, 
 G. Zheng, W. Liang, M. Hada, M. Ehara, K. Toyota, R. Fukuda, 
 J. Hasegawa, M. Ishida, T. Nakajima, Y. Honda, O. Kitao, H. Nakai, 
 T. Vreven, K. Throssell, J. A. Montgomery, Jr., J. E. Peralta, 
 F. Ogliaro, M. J. Bearpark, J. J. Heyd, E. N. Brothers, K. N. Kudin, 
 V. N. Staroverov, T. A. Keith, R. Kobayashi, J. Normand, 
 K. Raghavachari, A. P. Rendell, J. C. Burant, S. S. Iyengar, 
 J. Tomasi, M. Cossi, J. M. Millam, M. Klene, C. Adamo, R. Cammi, 
 J. W. Ochterski, R. L. Martin, K. Morokuma, O. Farkas, 
 J. B. Foresman, and D. J. Fox, Gaussian, Inc., Wallingford CT, 2016.
 
 ******************************************
 Gaussian 16:  ES64L-G16RevB.01 20-Dec-2017
                 3-Aug-2020 
 ******************************************
 %chk=meso-TS_55_2_xp-115.chk
 %nproc=24
 Will use up to   24 processors via shared memory.
 %mem=48GB
 ----------------------------------------------------------------------
 #p uwb97xd guess=mix def2tzvp # scrf=(iefpcm,solvent=Cyclohexane,read)
  nosym guess=only pop=none
 ----------------------------------------------------------------------
 1/38=1,40=2,172=1/1;
 2/12=2,15=1,17=6,18=5,40=1/2;
 3/5=44,7=101,11=2,25=1,30=1,70=2203,72=17,74=-58,89=1,116=2/1,2;
 4/13=-1/1;
 99/5=2/99;
 Leave Link    1 at Mon Aug  3 17:22:22 2020, MaxMem=  6442450944 cpu:               1.5 elap:               0.1
 (Enter /scratch/scicomp/CentOS/7.3.1611/Haswell/software/Gaussian/g16/l101.exe)
 -----------------------
 endo-2 xp-pcm for eta=3
 -----------------------
 Symbolic Z-matrix:
 Charge =  0 Multiplicity = 1
 6                    -3.12716  -0.44139   0.26581 
 6                    -0.74278  -0.25368  -1.25379 
 1                    -4.06659  -0.53163   0.79885 
 1                     0.20497  -0.1725   -1.77163 
 6                     1.17538   1.42747   0.80302 
 6                     0.74278   0.25368   1.25379 
 1                     0.58291   2.32407   0.941 
 1                    -0.20497   0.1725    1.77163 
 6                     1.57459  -0.98981   1.12726 
 1                     2.11611  -1.12215   2.07269 
 1                     0.92754  -1.86179   1.02529 
 6                     2.46088   1.53095   0.11177 
 1                     2.86025   2.51601  -0.0982 
 6                     3.12716   0.44139  -0.26581 
 1                     4.06659   0.53163  -0.79885 
 6                     2.57273  -0.93795  -0.03439 
 1                     2.09129  -1.274    -0.96099 
 1                     3.38476  -1.64457   0.14749 
 6                    -1.17538  -1.42747  -0.80302 
 1                    -0.58291  -2.32407  -0.941 
 6                    -2.46088  -1.53095  -0.11177 
 1                    -2.86025  -2.51601   0.0982 
 6                    -1.57459   0.98981  -1.12726 
 1                    -0.92754   1.86179  -1.02529 
 1                    -2.11611   1.12215  -2.07269 
 6                    -2.57273   0.93795   0.03439 
 1                    -3.38476   1.64457  -0.14749 
 1                    -2.09129   1.274     0.96099 
 
 ITRead=  0  0  0  0  0  0  0  0  0  0  0  0  0  0  0  0  0  0  0  0
 ITRead=  0  0  0  0  0  0  0  0
 MicOpt= -1 -1 -1 -1 -1 -1 -1 -1 -1 -1 -1 -1 -1 -1 -1 -1 -1 -1 -1 -1
 MicOpt= -1 -1 -1 -1 -1 -1 -1 -1
 NAtoms=     28 NQM=       28 NQMF=       0 NMMI=      0 NMMIF=      0
                NMic=       0 NMicF=      0.
                    Isotopes and Nuclear Properties:
 (Nuclear quadrupole moments (NQMom) in fm**2, nuclear magnetic moments (NMagM)
  in nuclear magnetons)

  Atom         1           2           3           4           5           6           7           8           9          10
 IAtWgt=          12          12           1           1          12          12           1           1          12           1
 AtmWgt=  12.0000000  12.0000000   1.0078250   1.0078250  12.0000000  12.0000000   1.0078250   1.0078250  12.0000000   1.0078250
 NucSpn=           0           0           1           1           0           0           1           1           0           1
 AtZEff=  -0.0000000  -0.0000000  -0.0000000  -0.0000000  -0.0000000  -0.0000000  -0.0000000  -0.0000000  -0.0000000  -0.0000000
 NQMom=    0.0000000   0.0000000   0.0000000   0.0000000   0.0000000   0.0000000   0.0000000   0.0000000   0.0000000   0.0000000
 NMagM=    0.0000000   0.0000000   2.7928460   2.7928460   0.0000000   0.0000000   2.7928460   2.7928460   0.0000000   2.7928460
 AtZNuc=   6.0000000   6.0000000   1.0000000   1.0000000   6.0000000   6.0000000   1.0000000   1.0000000   6.0000000   1.0000000

  Atom        11          12          13          14          15          16          17          18          19          20
 IAtWgt=           1          12           1          12           1          12           1           1          12           1
 AtmWgt=   1.0078250  12.0000000   1.0078250  12.0000000   1.0078250  12.0000000   1.0078250   1.0078250  12.0000000   1.0078250
 NucSpn=           1           0           1           0           1           0           1           1           0           1
 AtZEff=  -0.0000000  -0.0000000  -0.0000000  -0.0000000  -0.0000000  -0.0000000  -0.0000000  -0.0000000  -0.0000000  -0.0000000
 NQMom=    0.0000000   0.0000000   0.0000000   0.0000000   0.0000000   0.0000000   0.0000000   0.0000000   0.0000000   0.0000000
 NMagM=    2.7928460   0.0000000   2.7928460   0.0000000   2.7928460   0.0000000   2.7928460   2.7928460   0.0000000   2.7928460
 AtZNuc=   1.0000000   6.0000000   1.0000000   6.0000000   1.0000000   6.0000000   1.0000000   1.0000000   6.0000000   1.0000000

  Atom        21          22          23          24          25          26          27          28
 IAtWgt=          12           1          12           1           1          12           1           1
 AtmWgt=  12.0000000   1.0078250  12.0000000   1.0078250   1.0078250  12.0000000   1.0078250   1.0078250
 NucSpn=           0           1           0           1           1           0           1           1
 AtZEff=  -0.0000000  -0.0000000  -0.0000000  -0.0000000  -0.0000000  -0.0000000  -0.0000000  -0.0000000
 NQMom=    0.0000000   0.0000000   0.0000000   0.0000000   0.0000000   0.0000000   0.0000000   0.0000000
 NMagM=    0.0000000   2.7928460   0.0000000   2.7928460   2.7928460   0.0000000   2.7928460   2.7928460
 AtZNuc=   6.0000000   1.0000000   6.0000000   1.0000000   1.0000000   6.0000000   1.0000000   1.0000000
 Leave Link  101 at Mon Aug  3 17:22:22 2020, MaxMem=  6442450944 cpu:               2.4 elap:               0.1
 (Enter /scratch/scicomp/CentOS/7.3.1611/Haswell/software/Gaussian/g16/l202.exe)
                          Input orientation:                          
 ---------------------------------------------------------------------
 Center     Atomic      Atomic             Coordinates (Angstroms)
 Number     Number       Type             X           Y           Z
 ---------------------------------------------------------------------
      1          6           0       -3.127160   -0.441387    0.265808
      2          6           0       -0.742781   -0.253682   -1.253790
      3          1           0       -4.066590   -0.531634    0.798854
      4          1           0        0.204971   -0.172502   -1.771631
      5          6           0        1.175378    1.427467    0.803019
      6          6           0        0.742781    0.253682    1.253790
      7          1           0        0.582914    2.324068    0.940997
      8          1           0       -0.204971    0.172502    1.771631
      9          6           0        1.574588   -0.989808    1.127258
     10          1           0        2.116105   -1.122154    2.072691
     11          1           0        0.927535   -1.861790    1.025285
     12          6           0        2.460878    1.530950    0.111768
     13          1           0        2.860246    2.516008   -0.098202
     14          6           0        3.127160    0.441387   -0.265808
     15          1           0        4.066590    0.531634   -0.798854
     16          6           0        2.572730   -0.937949   -0.034385
     17          1           0        2.091291   -1.273998   -0.960989
     18          1           0        3.384763   -1.644565    0.147485
     19          6           0       -1.175378   -1.427467   -0.803019
     20          1           0       -0.582914   -2.324068   -0.940997
     21          6           0       -2.460878   -1.530950   -0.111768
     22          1           0       -2.860246   -2.516008    0.098202
     23          6           0       -1.574588    0.989808   -1.127258
     24          1           0       -0.927535    1.861790   -1.025285
     25          1           0       -2.116105    1.122154   -2.072691
     26          6           0       -2.572730    0.937949    0.034385
     27          1           0       -3.384763    1.644565   -0.147485
     28          1           0       -2.091291    1.273998    0.960989
 ---------------------------------------------------------------------
                    Distance matrix (angstroms):
                    1          2          3          4          5
     1  C    0.000000
     2  C    2.833668   0.000000
     3  H    1.083887   3.916416   0.000000
     4  H    3.914914   1.083044   4.998260   0.000000
     5  C    4.721551   3.276593   5.596099   3.182831   0.000000
     6  C    4.054093   2.958424   4.894256   3.102264   1.329701
     7  H    4.676352   3.635843   5.458308   3.705948   1.083487
     8  H    3.344182   3.102264   4.044033   3.583544   2.102025
     9  C    4.811372   3.403156   5.669273   3.308685   2.471380
    10  H    5.587495   4.471348   6.340118   4.396940   2.999600
    11  H    4.362901   3.251177   5.173188   3.346421   3.306061
    12  C    5.927901   3.913194   6.879984   3.396772   1.463232
    13  H    6.687879   4.689176   7.620623   4.132667   2.199068
    14  C    6.338645   4.054093   7.336914   3.344182   2.433968
    15  H    7.336914   4.894256   8.356544   4.044033   3.424561
    16  C    5.729349   3.598303   6.703727   3.034834   2.872113
    17  H    5.424989   3.026341   6.447298   2.329944   3.353883
    18  H    6.623200   4.575450   7.562113   3.995129   3.840376
    19  C    2.433968   1.329701   3.424561   2.102025   4.031880
    20  H    3.387337   2.099975   4.286712   2.437202   4.495242
    21  C    1.331782   2.426414   2.099089   3.421590   4.776131
    22  H    2.098425   3.380778   2.425679   4.287639   5.686301
    23  C    2.529710   1.501393   3.497823   2.221038   3.388189
    24  H    3.436553   2.135783   4.348520   2.444984   2.820208
    25  H    2.989226   2.109394   3.845150   2.674727   4.381414
    26  C    1.504499   2.535368   2.230629   3.494341   3.857297
    27  H    2.142047   3.436178   2.469066   4.338868   4.663204
    28  H    2.121049   3.009573   2.681119   3.851285   3.274085
                    6          7          8          9         10
     6  C    0.000000
     7  H    2.099975   0.000000
     8  H    1.083044   2.437202   0.000000
     9  C    1.501393   3.464085   2.221038   0.000000
    10  H    2.109394   3.938001   2.674727   1.097543   0.000000
    11  H    2.135783   4.200866   2.444984   1.090609   1.748376
    12  C    2.426414   2.200774   3.421590   2.858488   3.317084
    13  H    3.380778   2.510581   4.287639   3.930065   4.301482
    14  C    2.833668   3.387337   3.914914   2.529710   2.989226
    15  H    3.916416   4.286712   4.998260   3.497823   3.845150
    16  C    2.535368   3.943538   3.494341   1.532446   2.163841
    17  H    3.009573   4.340372   3.851285   2.169913   3.037579
    18  H    3.436178   4.922405   4.338868   2.159953   2.364069
    19  C    3.276593   4.495242   3.182831   3.388189   4.381414
    20  H    3.635843   5.148420   3.705948   3.273033   4.220381
    21  C    3.913194   5.023360   3.396772   4.255938   5.088000
    22  H    4.689176   5.999332   4.132667   4.801666   5.532224
    23  C    3.403156   3.273033   3.308685   4.349601   5.321773
    24  H    3.251177   2.522186   3.346421   4.361843   5.269262
    25  H    4.471348   4.220381   4.396940   5.321773   6.335038
    26  C    3.598303   3.563897   3.034834   4.702219   5.512158
    27  H    4.575450   4.170009   3.995129   5.758477   6.545492
    28  H    3.026341   2.873050   2.329944   4.311743   4.967857
                   11         12         13         14         15
    11  H    0.000000
    12  C    3.833580   0.000000
    13  H    4.915558   1.083477   0.000000
    14  C    3.436553   1.331782   2.098425   0.000000
    15  H    4.348520   2.099089   2.425679   1.083887   0.000000
    16  C    2.164035   2.475749   3.466491   1.504499   2.230629
    17  H    2.375944   3.025745   3.962302   2.121049   2.681119
    18  H    2.618337   3.307376   4.200696   2.142047   2.469066
    19  C    2.820208   4.776131   5.686301   4.721551   5.596099
    20  H    2.522186   5.023360   5.999332   4.676352   5.458308
    21  C    3.589385   5.800766   6.685238   5.927901   6.879984
    22  H    3.954083   6.685238   7.621272   6.687879   7.620623
    23  C    4.361843   4.255938   4.801666   4.811372   5.669273
    24  H    4.638014   3.589385   3.954083   4.362901   5.173188
    25  H    5.269262   5.088000   5.532224   5.587495   6.340118
    26  C    4.590455   5.069009   5.659070   5.729349   6.703727
    27  H    5.680302   5.852490   6.305710   6.623200   7.562113
    28  H    4.353230   4.637827   5.213654   5.424989   6.447298
                   16         17         18         19         20
    16  C    0.000000
    17  H    1.096954   0.000000
    18  H    1.091687   1.743303   0.000000
    19  C    3.857297   3.274085   4.663204   0.000000
    20  H    3.563897   2.873050   4.170009   1.083487   0.000000
    21  C    5.069009   4.637827   5.852490   1.463232   2.200774
    22  H    5.659070   5.213654   6.305710   2.199068   2.510581
    23  C    4.702219   4.311743   5.758477   2.471380   3.464085
    24  H    4.590455   4.353230   5.680302   3.306061   4.200866
    25  H    5.512158   4.967857   6.545492   2.999600   3.938001
    26  C    5.477178   5.257050   6.494143   2.872113   3.943538
    27  H    6.494143   6.258352   7.532056   3.840376   4.922405
    28  H    5.257050   5.261205   6.258352   3.353883   4.340372
                   21         22         23         24         25
    21  C    0.000000
    22  H    1.083477   0.000000
    23  C    2.858488   3.930065   0.000000
    24  H    3.833580   4.915558   1.090609   0.000000
    25  H    3.317084   4.301482   1.097543   1.748376   0.000000
    26  C    2.475749   3.466491   1.532446   2.164035   2.163841
    27  H    3.307376   4.200696   2.159953   2.618337   2.364069
    28  H    3.025745   3.962302   2.169913   2.375944   3.037579
                   26         27         28
    26  C    0.000000
    27  H    1.091687   0.000000
    28  H    1.096954   1.743303   0.000000
 Symmetry turned off by external request.
 Stoichiometry    C12H16
 Framework group  CI[X(C12H16)]
 Deg. of freedom    39
 Full point group                 CI      NOp   2
 Rotational constants (GHZ):           1.7477464           0.5912905           0.5348176
 Leave Link  202 at Mon Aug  3 17:22:22 2020, MaxMem=  6442450944 cpu:               0.3 elap:               0.0
 (Enter /scratch/scicomp/CentOS/7.3.1611/Haswell/software/Gaussian/g16/l301.exe)
 Standard basis: def2TZVP (5D, 7F)
 Ernie: Thresh=  0.10000D-02 Tol=  0.10000D-05 Strict=F.
   468 basis functions,   740 primitive gaussians,   528 cartesian basis functions
    44 alpha electrons       44 beta electrons
       nuclear repulsion energy       675.2444009835 Hartrees.
 IExCor= 4639 DFT=T Ex+Corr=wB97XD ExCW=0 ScaHFX=  1.000000
 ScaDFX=  1.000000  1.000000  1.000000  1.000000 ScalE2=  1.000000  1.000000
 IRadAn=      5 IRanWt=     -1 IRanGd=            0 ICorTp=0 IEmpDi=121
 HFx  wShort=  0.000000 wLong=  0.200000 cFull=  0.222036 cShort=  0.000000 cLong=  0.777964
 DFx  wShort=  0.000000 wLong=  0.200000 cFull=  0.000000 cShort=  0.000000 cLong=  1.000000
 NAtoms=   28 NActive=   28 NUniq=   28 SFac= 1.00D+00 NAtFMM=   60 NAOKFM=F Big=F
 Integral buffers will be    131072 words long.
 Raffenetti 2 integral format.
 Two-electron integral symmetry is turned off.
 R6Disp:  Grimme-D2 Dispersion energy=       -0.0220448925 Hartrees.
 Nuclear repulsion after empirical dispersion term =      675.2223560911 Hartrees.
 Using the following non-standard input for PCM:
 qrep pcmdoc geomview  nodis nocav g03defaults tsare=0.075
 Warning! Using old PCM defaults because the g03defaults keyword was found.
 These settings can be overridden by following keywords.
 nsfe=28
 NVESolv=36  SolvMW=84.1595   Rsolv=2.815
 eps=2.0165 RhoS=0.7781
 --- end of non-standard input.
 Reading user-defined spheres from input:
 ISph  on   Nord    Re0     Alpha      Xe            Ye            Ze
 --- end of user-defined spheres data.
 ------------------------------------------------------------------------------
 Polarizable Continuum Model (PCM)
 =================================
 Model                : PCM.
 Atomic radii         : UA0 (Simple United Atom Topological Model).
 Polarization charges : Total charges.
 Charge compensation  : None.
 Solution method      : On-the-fly selection.
 Cavity type          : SES (Solvent Excluding Surface) (Alpha=1.000).
 Cavity algorithm     : GePol (RMin=0.200 OFac=0.890).
                        User-defined sphere list used, NSphG=   28.
                        Tesserae with average area of 0.075 Ang**2.
                        Smoothing algorithm: None.
                        Polarization charges: point-like.
                        Self-potential: constant (ISelfS= 1).
                        Self-field    : global E.n sum rule (ISelfD= 3).
 Solvent              : CycloHexane, Eps=   2.016500 Eps(inf)=   2.035188
                        RSolv=   2.815000 Ang.
 ------------------------------------------------------------------------------
 GePol: Number of generator spheres                  =      28
 GePol: Total number of spheres                      =     214
 GePol: Number of exposed spheres                    =     146 ( 68.22%)
 GePol: Number of tesserae                           =    4784
 GePol: Average area of tesserae                     =       0.04 Ang**2
 GePol: Minimum area of tessera                      =   0.10D-02 Ang**2
 GePol: Maximum area of tessera                      =    0.11389 Ang**2
 GePol: Number of small tesserae                     =       0
 GePol: Fraction of small tesserae (<1% of avg)      =       0.00%
 GePol: Total count of vertices                      =   16966
 GePol: Maximum number of vertices in a tessera      =       7
 GePol: Cavity surface area                          =    215.238 Ang**2
 GePol: Cavity volume                                =    238.457 Ang**3
 Leave Link  301 at Mon Aug  3 17:22:22 2020, MaxMem=  6442450944 cpu:               8.2 elap:               0.4
 (Enter /scratch/scicomp/CentOS/7.3.1611/Haswell/software/Gaussian/g16/l302.exe)
 NPDir=0 NMtPBC=     1 NCelOv=     1 NCel=       1 NClECP=     1 NCelD=      1
         NCelK=      1 NCelE2=     1 NClLst=     1 CellRange=     0.0.
 One-electron integrals computed using PRISM.
   1 Symmetry operations used in ECPInt.
 ECPInt:  NShTT=   19306 NPrTT=   56928 LenC2=   18475 LenP2D=   41881.
 LDataN:  DoStor=T MaxTD1= 6 Len=  172
 NBasis=   468 RedAO= T EigKep=  2.45D-05  NBF=   468
 NBsUse=   468 1.00D-06 EigRej= -1.00D+00 NBFU=   468
 Precomputing XC quadrature grid using
 IXCGrd= 4 IRadAn=           5 IRanWt=          -1 IRanGd=           0 AccXCQ= 0.00D+00.
 Generated NRdTot=       0 NPtTot=           0 NUsed=           0 NTot=          32
 NSgBfM=   526   526   526   526   526 MxSgAt=    28 MxSgA2=    28.
 Leave Link  302 at Mon Aug  3 17:22:23 2020, MaxMem=  6442450944 cpu:              11.8 elap:               0.5
 (Enter /scratch/scicomp/CentOS/7.3.1611/Haswell/software/Gaussian/g16/l401.exe)
 ExpMin= 9.52D-02 ExpMax= 1.36D+04 ExpMxC= 4.63D+02 IAcc=3 IRadAn=         5 AccDes= 0.00D+00
 Harris functional with IExCor= 4639 and IRadAn=       5 diagonalized for initial guess.
 HarFok:  IExCor= 4639 AccDes= 0.00D+00 IRadAn=         5 IDoV= 1 UseB2=F ITyADJ=14
 ICtDFT=  3500011 ScaDFX=  1.000000  1.000000  1.000000  1.000000
 FoFCou: FMM=F IPFlag=           0 FMFlag=      100000 FMFlg1=           0
         NFxFlg=           0 DoJE=T BraDBF=F KetDBF=T FulRan=T
         wScrn=  0.000000 ICntrl=       500 IOpCl=  0 I1Cent=   200000004 NGrid=           0
         NMat0=    1 NMatS0=      1 NMatT0=    0 NMatD0=    1 NMtDS0=    0 NMtDT0=    0
 Symmetry not used in FoFCou.
 Harris En= -444.635372070846    
 JPrj=0 DoOrth=F DoCkMO=T.
 Mixing orbitals, IMix= 1 IMixAn=  0 NRI=1 NE=   44 Coef=  7.07106781D-01  7.07106781D-01
 Mixing orbitals, IMix= 1 IMixAn=  0 NRI=1 NE=   44 Coef= -7.07106781D-01  7.07106781D-01
 Initial guess <Sx>= 0.0000 <Sy>= 0.0000 <Sz>= 0.0000 <S**2>= 1.0000 S= 0.6180
 Leave Link  401 at Mon Aug  3 17:22:25 2020, MaxMem=  6442450944 cpu:              46.8 elap:               2.0
 (Enter /scratch/scicomp/CentOS/7.3.1611/Haswell/software/Gaussian/g16/l9999.exe)

 This type of calculation cannot be archived.


 MY GROUP MEETINGS AREN'T VERY STRUCTURED.
     -- PROF. M. S. GORDON, OCT. 5, 1984
 Job cpu time:       0 days  0 hours  1 minutes 11.9 seconds.
 Elapsed time:       0 days  0 hours  0 minutes  3.3 seconds.
 File lengths (MBytes):  RWF=    417 Int=      0 D2E=      0 Chk=      1 Scr=      1
 Normal termination of Gaussian 16 at Mon Aug  3 17:22:25 2020.
 Initial command:
 /scratch/scicomp/CentOS/7.3.1611/Haswell/software/Gaussian/g16/l1.exe "/scratch/bochen/cyclohexadiene-dimerization/wb97xd-def2tzvp/xp-pcm/meso/Gau-82666.inp" -scrdir="/scratch/bochen/cyclohexadiene-dimerization/wb97xd-def2tzvp/xp-pcm/meso/"
 Entering Link 1 = /scratch/scicomp/CentOS/7.3.1611/Haswell/software/Gaussian/g16/l1.exe PID=     82991.
  
 Copyright (c) 1988-2017, Gaussian, Inc.  All Rights Reserved.
  
 This is part of the Gaussian(R) 16 program.  It is based on
 the Gaussian(R) 09 system (copyright 2009, Gaussian, Inc.),
 the Gaussian(R) 03 system (copyright 2003, Gaussian, Inc.),
 the Gaussian(R) 98 system (copyright 1998, Gaussian, Inc.),
 the Gaussian(R) 94 system (copyright 1995, Gaussian, Inc.),
 the Gaussian 92(TM) system (copyright 1992, Gaussian, Inc.),
 the Gaussian 90(TM) system (copyright 1990, Gaussian, Inc.),
 the Gaussian 88(TM) system (copyright 1988, Gaussian, Inc.),
 the Gaussian 86(TM) system (copyright 1986, Carnegie Mellon
 University), and the Gaussian 82(TM) system (copyright 1983,
 Carnegie Mellon University). Gaussian is a federally registered
 trademark of Gaussian, Inc.
  
 This software contains proprietary and confidential information,
 including trade secrets, belonging to Gaussian, Inc.
  
 This software is provided under written license and may be
 used, copied, transmitted, or stored only in accord with that
 written license.
  
 The following legend is applicable only to US Government
 contracts under FAR:
  
                    RESTRICTED RIGHTS LEGEND
  
 Use, reproduction and disclosure by the US Government is
 subject to restrictions as set forth in subparagraphs (a)
 and (c) of the Commercial Computer Software - Restricted
 Rights clause in FAR 52.227-19.
  
 Gaussian, Inc.
 340 Quinnipiac St., Bldg. 40, Wallingford CT 06492
  
  
 ---------------------------------------------------------------
 Warning -- This program may not be used in any manner that
 competes with the business of Gaussian, Inc. or will provide
 assistance to any competitor of Gaussian, Inc.  The licensee
 of this program is prohibited from giving any competitor of
 Gaussian, Inc. access to this program.  By using this program,
 the user acknowledges that Gaussian, Inc. is engaged in the
 business of creating and licensing software in the field of
 computational chemistry and represents and warrants to the
 licensee that it is not a competitor of Gaussian, Inc. and that
 it will not use this program in any manner prohibited above.
 ---------------------------------------------------------------
  

 Cite this work as:
 Gaussian 16, Revision B.01,
 M. J. Frisch, G. W. Trucks, H. B. Schlegel, G. E. Scuseria, 
 M. A. Robb, J. R. Cheeseman, G. Scalmani, V. Barone, 
 G. A. Petersson, H. Nakatsuji, X. Li, M. Caricato, A. V. Marenich, 
 J. Bloino, B. G. Janesko, R. Gomperts, B. Mennucci, H. P. Hratchian, 
 J. V. Ortiz, A. F. Izmaylov, J. L. Sonnenberg, D. Williams-Young, 
 F. Ding, F. Lipparini, F. Egidi, J. Goings, B. Peng, A. Petrone, 
 T. Henderson, D. Ranasinghe, V. G. Zakrzewski, J. Gao, N. Rega, 
 G. Zheng, W. Liang, M. Hada, M. Ehara, K. Toyota, R. Fukuda, 
 J. Hasegawa, M. Ishida, T. Nakajima, Y. Honda, O. Kitao, H. Nakai, 
 T. Vreven, K. Throssell, J. A. Montgomery, Jr., J. E. Peralta, 
 F. Ogliaro, M. J. Bearpark, J. J. Heyd, E. N. Brothers, K. N. Kudin, 
 V. N. Staroverov, T. A. Keith, R. Kobayashi, J. Normand, 
 K. Raghavachari, A. P. Rendell, J. C. Burant, S. S. Iyengar, 
 J. Tomasi, M. Cossi, J. M. Millam, M. Klene, C. Adamo, R. Cammi, 
 J. W. Ochterski, R. L. Martin, K. Morokuma, O. Farkas, 
 J. B. Foresman, and D. J. Fox, Gaussian, Inc., Wallingford CT, 2016.
 
 ******************************************
 Gaussian 16:  ES64L-G16RevB.01 20-Dec-2017
                 3-Aug-2020 
 ******************************************
 %chk=meso-TS_55_2_xp-110.chk
 %nproc=24
 Will use up to   24 processors via shared memory.
 %mem=48GB
 ----------------------------------------------------------------------
 #p uwb97xd guess=mix def2tzvp # scrf=(iefpcm,solvent=Cyclohexane,read)
  nosym guess=only pop=none
 ----------------------------------------------------------------------
 1/38=1,40=2,172=1/1;
 2/12=2,15=1,17=6,18=5,40=1/2;
 3/5=44,7=101,11=2,25=1,30=1,70=2203,72=17,74=-58,89=1,116=2/1,2;
 4/13=-1/1;
 99/5=2/99;
 Leave Link    1 at Mon Aug  3 17:22:25 2020, MaxMem=  6442450944 cpu:               1.8 elap:               0.1
 (Enter /scratch/scicomp/CentOS/7.3.1611/Haswell/software/Gaussian/g16/l101.exe)
 -----------------------
 endo-2 xp-pcm for eta=3
 -----------------------
 Symbolic Z-matrix:
 Charge =  0 Multiplicity = 1
 6                    -3.12716  -0.44139   0.26581 
 6                    -0.74278  -0.25368  -1.25379 
 1                    -4.06659  -0.53163   0.79885 
 1                     0.20497  -0.1725   -1.77163 
 6                     1.17538   1.42747   0.80302 
 6                     0.74278   0.25368   1.25379 
 1                     0.58291   2.32407   0.941 
 1                    -0.20497   0.1725    1.77163 
 6                     1.57459  -0.98981   1.12726 
 1                     2.11611  -1.12215   2.07269 
 1                     0.92754  -1.86179   1.02529 
 6                     2.46088   1.53095   0.11177 
 1                     2.86025   2.51601  -0.0982 
 6                     3.12716   0.44139  -0.26581 
 1                     4.06659   0.53163  -0.79885 
 6                     2.57273  -0.93795  -0.03439 
 1                     2.09129  -1.274    -0.96099 
 1                     3.38476  -1.64457   0.14749 
 6                    -1.17538  -1.42747  -0.80302 
 1                    -0.58291  -2.32407  -0.941 
 6                    -2.46088  -1.53095  -0.11177 
 1                    -2.86025  -2.51601   0.0982 
 6                    -1.57459   0.98981  -1.12726 
 1                    -0.92754   1.86179  -1.02529 
 1                    -2.11611   1.12215  -2.07269 
 6                    -2.57273   0.93795   0.03439 
 1                    -3.38476   1.64457  -0.14749 
 1                    -2.09129   1.274     0.96099 
 
 ITRead=  0  0  0  0  0  0  0  0  0  0  0  0  0  0  0  0  0  0  0  0
 ITRead=  0  0  0  0  0  0  0  0
 MicOpt= -1 -1 -1 -1 -1 -1 -1 -1 -1 -1 -1 -1 -1 -1 -1 -1 -1 -1 -1 -1
 MicOpt= -1 -1 -1 -1 -1 -1 -1 -1
 NAtoms=     28 NQM=       28 NQMF=       0 NMMI=      0 NMMIF=      0
                NMic=       0 NMicF=      0.
                    Isotopes and Nuclear Properties:
 (Nuclear quadrupole moments (NQMom) in fm**2, nuclear magnetic moments (NMagM)
  in nuclear magnetons)

  Atom         1           2           3           4           5           6           7           8           9          10
 IAtWgt=          12          12           1           1          12          12           1           1          12           1
 AtmWgt=  12.0000000  12.0000000   1.0078250   1.0078250  12.0000000  12.0000000   1.0078250   1.0078250  12.0000000   1.0078250
 NucSpn=           0           0           1           1           0           0           1           1           0           1
 AtZEff=  -0.0000000  -0.0000000  -0.0000000  -0.0000000  -0.0000000  -0.0000000  -0.0000000  -0.0000000  -0.0000000  -0.0000000
 NQMom=    0.0000000   0.0000000   0.0000000   0.0000000   0.0000000   0.0000000   0.0000000   0.0000000   0.0000000   0.0000000
 NMagM=    0.0000000   0.0000000   2.7928460   2.7928460   0.0000000   0.0000000   2.7928460   2.7928460   0.0000000   2.7928460
 AtZNuc=   6.0000000   6.0000000   1.0000000   1.0000000   6.0000000   6.0000000   1.0000000   1.0000000   6.0000000   1.0000000

  Atom        11          12          13          14          15          16          17          18          19          20
 IAtWgt=           1          12           1          12           1          12           1           1          12           1
 AtmWgt=   1.0078250  12.0000000   1.0078250  12.0000000   1.0078250  12.0000000   1.0078250   1.0078250  12.0000000   1.0078250
 NucSpn=           1           0           1           0           1           0           1           1           0           1
 AtZEff=  -0.0000000  -0.0000000  -0.0000000  -0.0000000  -0.0000000  -0.0000000  -0.0000000  -0.0000000  -0.0000000  -0.0000000
 NQMom=    0.0000000   0.0000000   0.0000000   0.0000000   0.0000000   0.0000000   0.0000000   0.0000000   0.0000000   0.0000000
 NMagM=    2.7928460   0.0000000   2.7928460   0.0000000   2.7928460   0.0000000   2.7928460   2.7928460   0.0000000   2.7928460
 AtZNuc=   1.0000000   6.0000000   1.0000000   6.0000000   1.0000000   6.0000000   1.0000000   1.0000000   6.0000000   1.0000000

  Atom        21          22          23          24          25          26          27          28
 IAtWgt=          12           1          12           1           1          12           1           1
 AtmWgt=  12.0000000   1.0078250  12.0000000   1.0078250   1.0078250  12.0000000   1.0078250   1.0078250
 NucSpn=           0           1           0           1           1           0           1           1
 AtZEff=  -0.0000000  -0.0000000  -0.0000000  -0.0000000  -0.0000000  -0.0000000  -0.0000000  -0.0000000
 NQMom=    0.0000000   0.0000000   0.0000000   0.0000000   0.0000000   0.0000000   0.0000000   0.0000000
 NMagM=    0.0000000   2.7928460   0.0000000   2.7928460   2.7928460   0.0000000   2.7928460   2.7928460
 AtZNuc=   6.0000000   1.0000000   6.0000000   1.0000000   1.0000000   6.0000000   1.0000000   1.0000000
 Leave Link  101 at Mon Aug  3 17:22:25 2020, MaxMem=  6442450944 cpu:               2.4 elap:               0.1
 (Enter /scratch/scicomp/CentOS/7.3.1611/Haswell/software/Gaussian/g16/l202.exe)
                          Input orientation:                          
 ---------------------------------------------------------------------
 Center     Atomic      Atomic             Coordinates (Angstroms)
 Number     Number       Type             X           Y           Z
 ---------------------------------------------------------------------
      1          6           0       -3.127160   -0.441387    0.265808
      2          6           0       -0.742781   -0.253682   -1.253790
      3          1           0       -4.066590   -0.531634    0.798854
      4          1           0        0.204971   -0.172502   -1.771631
      5          6           0        1.175378    1.427467    0.803019
      6          6           0        0.742781    0.253682    1.253790
      7          1           0        0.582914    2.324068    0.940997
      8          1           0       -0.204971    0.172502    1.771631
      9          6           0        1.574588   -0.989808    1.127258
     10          1           0        2.116105   -1.122154    2.072691
     11          1           0        0.927535   -1.861790    1.025285
     12          6           0        2.460878    1.530950    0.111768
     13          1           0        2.860246    2.516008   -0.098202
     14          6           0        3.127160    0.441387   -0.265808
     15          1           0        4.066590    0.531634   -0.798854
     16          6           0        2.572730   -0.937949   -0.034385
     17          1           0        2.091291   -1.273998   -0.960989
     18          1           0        3.384763   -1.644565    0.147485
     19          6           0       -1.175378   -1.427467   -0.803019
     20          1           0       -0.582914   -2.324068   -0.940997
     21          6           0       -2.460878   -1.530950   -0.111768
     22          1           0       -2.860246   -2.516008    0.098202
     23          6           0       -1.574588    0.989808   -1.127258
     24          1           0       -0.927535    1.861790   -1.025285
     25          1           0       -2.116105    1.122154   -2.072691
     26          6           0       -2.572730    0.937949    0.034385
     27          1           0       -3.384763    1.644565   -0.147485
     28          1           0       -2.091291    1.273998    0.960989
 ---------------------------------------------------------------------
                    Distance matrix (angstroms):
                    1          2          3          4          5
     1  C    0.000000
     2  C    2.833668   0.000000
     3  H    1.083887   3.916416   0.000000
     4  H    3.914914   1.083044   4.998260   0.000000
     5  C    4.721551   3.276593   5.596099   3.182831   0.000000
     6  C    4.054093   2.958424   4.894256   3.102264   1.329701
     7  H    4.676352   3.635843   5.458308   3.705948   1.083487
     8  H    3.344182   3.102264   4.044033   3.583544   2.102025
     9  C    4.811372   3.403156   5.669273   3.308685   2.471380
    10  H    5.587495   4.471348   6.340118   4.396940   2.999600
    11  H    4.362901   3.251177   5.173188   3.346421   3.306061
    12  C    5.927901   3.913194   6.879984   3.396772   1.463232
    13  H    6.687879   4.689176   7.620623   4.132667   2.199068
    14  C    6.338645   4.054093   7.336914   3.344182   2.433968
    15  H    7.336914   4.894256   8.356544   4.044033   3.424561
    16  C    5.729349   3.598303   6.703727   3.034834   2.872113
    17  H    5.424989   3.026341   6.447298   2.329944   3.353883
    18  H    6.623200   4.575450   7.562113   3.995129   3.840376
    19  C    2.433968   1.329701   3.424561   2.102025   4.031880
    20  H    3.387337   2.099975   4.286712   2.437202   4.495242
    21  C    1.331782   2.426414   2.099089   3.421590   4.776131
    22  H    2.098425   3.380778   2.425679   4.287639   5.686301
    23  C    2.529710   1.501393   3.497823   2.221038   3.388189
    24  H    3.436553   2.135783   4.348520   2.444984   2.820208
    25  H    2.989226   2.109394   3.845150   2.674727   4.381414
    26  C    1.504499   2.535368   2.230629   3.494341   3.857297
    27  H    2.142047   3.436178   2.469066   4.338868   4.663204
    28  H    2.121049   3.009573   2.681119   3.851285   3.274085
                    6          7          8          9         10
     6  C    0.000000
     7  H    2.099975   0.000000
     8  H    1.083044   2.437202   0.000000
     9  C    1.501393   3.464085   2.221038   0.000000
    10  H    2.109394   3.938001   2.674727   1.097543   0.000000
    11  H    2.135783   4.200866   2.444984   1.090609   1.748376
    12  C    2.426414   2.200774   3.421590   2.858488   3.317084
    13  H    3.380778   2.510581   4.287639   3.930065   4.301482
    14  C    2.833668   3.387337   3.914914   2.529710   2.989226
    15  H    3.916416   4.286712   4.998260   3.497823   3.845150
    16  C    2.535368   3.943538   3.494341   1.532446   2.163841
    17  H    3.009573   4.340372   3.851285   2.169913   3.037579
    18  H    3.436178   4.922405   4.338868   2.159953   2.364069
    19  C    3.276593   4.495242   3.182831   3.388189   4.381414
    20  H    3.635843   5.148420   3.705948   3.273033   4.220381
    21  C    3.913194   5.023360   3.396772   4.255938   5.088000
    22  H    4.689176   5.999332   4.132667   4.801666   5.532224
    23  C    3.403156   3.273033   3.308685   4.349601   5.321773
    24  H    3.251177   2.522186   3.346421   4.361843   5.269262
    25  H    4.471348   4.220381   4.396940   5.321773   6.335038
    26  C    3.598303   3.563897   3.034834   4.702219   5.512158
    27  H    4.575450   4.170009   3.995129   5.758477   6.545492
    28  H    3.026341   2.873050   2.329944   4.311743   4.967857
                   11         12         13         14         15
    11  H    0.000000
    12  C    3.833580   0.000000
    13  H    4.915558   1.083477   0.000000
    14  C    3.436553   1.331782   2.098425   0.000000
    15  H    4.348520   2.099089   2.425679   1.083887   0.000000
    16  C    2.164035   2.475749   3.466491   1.504499   2.230629
    17  H    2.375944   3.025745   3.962302   2.121049   2.681119
    18  H    2.618337   3.307376   4.200696   2.142047   2.469066
    19  C    2.820208   4.776131   5.686301   4.721551   5.596099
    20  H    2.522186   5.023360   5.999332   4.676352   5.458308
    21  C    3.589385   5.800766   6.685238   5.927901   6.879984
    22  H    3.954083   6.685238   7.621272   6.687879   7.620623
    23  C    4.361843   4.255938   4.801666   4.811372   5.669273
    24  H    4.638014   3.589385   3.954083   4.362901   5.173188
    25  H    5.269262   5.088000   5.532224   5.587495   6.340118
    26  C    4.590455   5.069009   5.659070   5.729349   6.703727
    27  H    5.680302   5.852490   6.305710   6.623200   7.562113
    28  H    4.353230   4.637827   5.213654   5.424989   6.447298
                   16         17         18         19         20
    16  C    0.000000
    17  H    1.096954   0.000000
    18  H    1.091687   1.743303   0.000000
    19  C    3.857297   3.274085   4.663204   0.000000
    20  H    3.563897   2.873050   4.170009   1.083487   0.000000
    21  C    5.069009   4.637827   5.852490   1.463232   2.200774
    22  H    5.659070   5.213654   6.305710   2.199068   2.510581
    23  C    4.702219   4.311743   5.758477   2.471380   3.464085
    24  H    4.590455   4.353230   5.680302   3.306061   4.200866
    25  H    5.512158   4.967857   6.545492   2.999600   3.938001
    26  C    5.477178   5.257050   6.494143   2.872113   3.943538
    27  H    6.494143   6.258352   7.532056   3.840376   4.922405
    28  H    5.257050   5.261205   6.258352   3.353883   4.340372
                   21         22         23         24         25
    21  C    0.000000
    22  H    1.083477   0.000000
    23  C    2.858488   3.930065   0.000000
    24  H    3.833580   4.915558   1.090609   0.000000
    25  H    3.317084   4.301482   1.097543   1.748376   0.000000
    26  C    2.475749   3.466491   1.532446   2.164035   2.163841
    27  H    3.307376   4.200696   2.159953   2.618337   2.364069
    28  H    3.025745   3.962302   2.169913   2.375944   3.037579
                   26         27         28
    26  C    0.000000
    27  H    1.091687   0.000000
    28  H    1.096954   1.743303   0.000000
 Symmetry turned off by external request.
 Stoichiometry    C12H16
 Framework group  CI[X(C12H16)]
 Deg. of freedom    39
 Full point group                 CI      NOp   2
 Rotational constants (GHZ):           1.7477464           0.5912905           0.5348176
 Leave Link  202 at Mon Aug  3 17:22:26 2020, MaxMem=  6442450944 cpu:               0.3 elap:               0.0
 (Enter /scratch/scicomp/CentOS/7.3.1611/Haswell/software/Gaussian/g16/l301.exe)
 Standard basis: def2TZVP (5D, 7F)
 Ernie: Thresh=  0.10000D-02 Tol=  0.10000D-05 Strict=F.
   468 basis functions,   740 primitive gaussians,   528 cartesian basis functions
    44 alpha electrons       44 beta electrons
       nuclear repulsion energy       675.2444009835 Hartrees.
 IExCor= 4639 DFT=T Ex+Corr=wB97XD ExCW=0 ScaHFX=  1.000000
 ScaDFX=  1.000000  1.000000  1.000000  1.000000 ScalE2=  1.000000  1.000000
 IRadAn=      5 IRanWt=     -1 IRanGd=            0 ICorTp=0 IEmpDi=121
 HFx  wShort=  0.000000 wLong=  0.200000 cFull=  0.222036 cShort=  0.000000 cLong=  0.777964
 DFx  wShort=  0.000000 wLong=  0.200000 cFull=  0.000000 cShort=  0.000000 cLong=  1.000000
 NAtoms=   28 NActive=   28 NUniq=   28 SFac= 1.00D+00 NAtFMM=   60 NAOKFM=F Big=F
 Integral buffers will be    131072 words long.
 Raffenetti 2 integral format.
 Two-electron integral symmetry is turned off.
 R6Disp:  Grimme-D2 Dispersion energy=       -0.0220448925 Hartrees.
 Nuclear repulsion after empirical dispersion term =      675.2223560911 Hartrees.
 Using the following non-standard input for PCM:
 qrep pcmdoc geomview  nodis nocav g03defaults tsare=0.075
 Warning! Using old PCM defaults because the g03defaults keyword was found.
 These settings can be overridden by following keywords.
 nsfe=28
 NVESolv=36  SolvMW=84.1595   Rsolv=2.815
 eps=2.0165 RhoS=0.7781
 --- end of non-standard input.
 Reading user-defined spheres from input:
 ISph  on   Nord    Re0     Alpha      Xe            Ye            Ze
 --- end of user-defined spheres data.
 ------------------------------------------------------------------------------
 Polarizable Continuum Model (PCM)
 =================================
 Model                : PCM.
 Atomic radii         : UA0 (Simple United Atom Topological Model).
 Polarization charges : Total charges.
 Charge compensation  : None.
 Solution method      : On-the-fly selection.
 Cavity type          : SES (Solvent Excluding Surface) (Alpha=1.000).
 Cavity algorithm     : GePol (RMin=0.200 OFac=0.890).
                        User-defined sphere list used, NSphG=   28.
                        Tesserae with average area of 0.075 Ang**2.
                        Smoothing algorithm: None.
                        Polarization charges: point-like.
                        Self-potential: constant (ISelfS= 1).
                        Self-field    : global E.n sum rule (ISelfD= 3).
 Solvent              : CycloHexane, Eps=   2.016500 Eps(inf)=   2.035188
                        RSolv=   2.815000 Ang.
 ------------------------------------------------------------------------------
 GePol: Number of generator spheres                  =      28
 GePol: Total number of spheres                      =     270
 GePol: Number of exposed spheres                    =     178 ( 65.93%)
 GePol: Number of tesserae                           =    4680
 GePol: Average area of tesserae                     =       0.04 Ang**2
 GePol: Minimum area of tessera                      =   0.10D-02 Ang**2
 GePol: Maximum area of tessera                      =    0.11641 Ang**2
 GePol: Number of small tesserae                     =       0
 GePol: Fraction of small tesserae (<1% of avg)      =       0.00%
 GePol: Total count of vertices                      =   16867
 GePol: Maximum number of vertices in a tessera      =       7
 GePol: Cavity surface area                          =    208.116 Ang**2
 GePol: Cavity volume                                =    224.801 Ang**3
 Leave Link  301 at Mon Aug  3 17:22:26 2020, MaxMem=  6442450944 cpu:               9.1 elap:               0.4
 (Enter /scratch/scicomp/CentOS/7.3.1611/Haswell/software/Gaussian/g16/l302.exe)
 NPDir=0 NMtPBC=     1 NCelOv=     1 NCel=       1 NClECP=     1 NCelD=      1
         NCelK=      1 NCelE2=     1 NClLst=     1 CellRange=     0.0.
 One-electron integrals computed using PRISM.
   1 Symmetry operations used in ECPInt.
 ECPInt:  NShTT=   19306 NPrTT=   56928 LenC2=   18475 LenP2D=   41881.
 LDataN:  DoStor=T MaxTD1= 6 Len=  172
 NBasis=   468 RedAO= T EigKep=  2.45D-05  NBF=   468
 NBsUse=   468 1.00D-06 EigRej= -1.00D+00 NBFU=   468
 Precomputing XC quadrature grid using
 IXCGrd= 4 IRadAn=           5 IRanWt=          -1 IRanGd=           0 AccXCQ= 0.00D+00.
 Generated NRdTot=       0 NPtTot=           0 NUsed=           0 NTot=          32
 NSgBfM=   526   526   526   526   526 MxSgAt=    28 MxSgA2=    28.
 Leave Link  302 at Mon Aug  3 17:22:27 2020, MaxMem=  6442450944 cpu:              11.7 elap:               0.5
 (Enter /scratch/scicomp/CentOS/7.3.1611/Haswell/software/Gaussian/g16/l401.exe)
 ExpMin= 9.52D-02 ExpMax= 1.36D+04 ExpMxC= 4.63D+02 IAcc=3 IRadAn=         5 AccDes= 0.00D+00
 Harris functional with IExCor= 4639 and IRadAn=       5 diagonalized for initial guess.
 HarFok:  IExCor= 4639 AccDes= 0.00D+00 IRadAn=         5 IDoV= 1 UseB2=F ITyADJ=14
 ICtDFT=  3500011 ScaDFX=  1.000000  1.000000  1.000000  1.000000
 FoFCou: FMM=F IPFlag=           0 FMFlag=      100000 FMFlg1=           0
         NFxFlg=           0 DoJE=T BraDBF=F KetDBF=T FulRan=T
         wScrn=  0.000000 ICntrl=       500 IOpCl=  0 I1Cent=   200000004 NGrid=           0
         NMat0=    1 NMatS0=      1 NMatT0=    0 NMatD0=    1 NMtDS0=    0 NMtDT0=    0
 Symmetry not used in FoFCou.
 Harris En= -444.635372070846    
 JPrj=0 DoOrth=F DoCkMO=T.
 Mixing orbitals, IMix= 1 IMixAn=  0 NRI=1 NE=   44 Coef=  7.07106781D-01  7.07106781D-01
 Mixing orbitals, IMix= 1 IMixAn=  0 NRI=1 NE=   44 Coef= -7.07106781D-01  7.07106781D-01
 Initial guess <Sx>= 0.0000 <Sy>= 0.0000 <Sz>= 0.0000 <S**2>= 1.0000 S= 0.6180
 Leave Link  401 at Mon Aug  3 17:22:29 2020, MaxMem=  6442450944 cpu:              47.4 elap:               2.0
 (Enter /scratch/scicomp/CentOS/7.3.1611/Haswell/software/Gaussian/g16/l9999.exe)

 This type of calculation cannot be archived.


 O WAD SOME POWER THE GIFTIE GIE US       
 TO SEE OURSELS AS OTHERS SEE US.....     
 IT WOULD FRAE MONIE A BLUNDER FREE US,   
                     AND FOOLISH NOTION...
 WHAT AIRS IN DRESS AND GAIT WAD LEA'E US,
                     AND EV'N DEVOTION....
                                          
              (ROBERT BURNS 'TO A LOUSE') 
 Job cpu time:       0 days  0 hours  1 minutes 13.6 seconds.
 Elapsed time:       0 days  0 hours  0 minutes  3.3 seconds.
 File lengths (MBytes):  RWF=    400 Int=      0 D2E=      0 Chk=      1 Scr=      1
 Normal termination of Gaussian 16 at Mon Aug  3 17:22:29 2020.
 Initial command:
 /scratch/scicomp/CentOS/7.3.1611/Haswell/software/Gaussian/g16/l1.exe "/scratch/bochen/cyclohexadiene-dimerization/wb97xd-def2tzvp/xp-pcm/meso/Gau-82666.inp" -scrdir="/scratch/bochen/cyclohexadiene-dimerization/wb97xd-def2tzvp/xp-pcm/meso/"
 Entering Link 1 = /scratch/scicomp/CentOS/7.3.1611/Haswell/software/Gaussian/g16/l1.exe PID=     83154.
  
 Copyright (c) 1988-2017, Gaussian, Inc.  All Rights Reserved.
  
 This is part of the Gaussian(R) 16 program.  It is based on
 the Gaussian(R) 09 system (copyright 2009, Gaussian, Inc.),
 the Gaussian(R) 03 system (copyright 2003, Gaussian, Inc.),
 the Gaussian(R) 98 system (copyright 1998, Gaussian, Inc.),
 the Gaussian(R) 94 system (copyright 1995, Gaussian, Inc.),
 the Gaussian 92(TM) system (copyright 1992, Gaussian, Inc.),
 the Gaussian 90(TM) system (copyright 1990, Gaussian, Inc.),
 the Gaussian 88(TM) system (copyright 1988, Gaussian, Inc.),
 the Gaussian 86(TM) system (copyright 1986, Carnegie Mellon
 University), and the Gaussian 82(TM) system (copyright 1983,
 Carnegie Mellon University). Gaussian is a federally registered
 trademark of Gaussian, Inc.
  
 This software contains proprietary and confidential information,
 including trade secrets, belonging to Gaussian, Inc.
  
 This software is provided under written license and may be
 used, copied, transmitted, or stored only in accord with that
 written license.
  
 The following legend is applicable only to US Government
 contracts under FAR:
  
                    RESTRICTED RIGHTS LEGEND
  
 Use, reproduction and disclosure by the US Government is
 subject to restrictions as set forth in subparagraphs (a)
 and (c) of the Commercial Computer Software - Restricted
 Rights clause in FAR 52.227-19.
  
 Gaussian, Inc.
 340 Quinnipiac St., Bldg. 40, Wallingford CT 06492
  
  
 ---------------------------------------------------------------
 Warning -- This program may not be used in any manner that
 competes with the business of Gaussian, Inc. or will provide
 assistance to any competitor of Gaussian, Inc.  The licensee
 of this program is prohibited from giving any competitor of
 Gaussian, Inc. access to this program.  By using this program,
 the user acknowledges that Gaussian, Inc. is engaged in the
 business of creating and licensing software in the field of
 computational chemistry and represents and warrants to the
 licensee that it is not a competitor of Gaussian, Inc. and that
 it will not use this program in any manner prohibited above.
 ---------------------------------------------------------------
  

 Cite this work as:
 Gaussian 16, Revision B.01,
 M. J. Frisch, G. W. Trucks, H. B. Schlegel, G. E. Scuseria, 
 M. A. Robb, J. R. Cheeseman, G. Scalmani, V. Barone, 
 G. A. Petersson, H. Nakatsuji, X. Li, M. Caricato, A. V. Marenich, 
 J. Bloino, B. G. Janesko, R. Gomperts, B. Mennucci, H. P. Hratchian, 
 J. V. Ortiz, A. F. Izmaylov, J. L. Sonnenberg, D. Williams-Young, 
 F. Ding, F. Lipparini, F. Egidi, J. Goings, B. Peng, A. Petrone, 
 T. Henderson, D. Ranasinghe, V. G. Zakrzewski, J. Gao, N. Rega, 
 G. Zheng, W. Liang, M. Hada, M. Ehara, K. Toyota, R. Fukuda, 
 J. Hasegawa, M. Ishida, T. Nakajima, Y. Honda, O. Kitao, H. Nakai, 
 T. Vreven, K. Throssell, J. A. Montgomery, Jr., J. E. Peralta, 
 F. Ogliaro, M. J. Bearpark, J. J. Heyd, E. N. Brothers, K. N. Kudin, 
 V. N. Staroverov, T. A. Keith, R. Kobayashi, J. Normand, 
 K. Raghavachari, A. P. Rendell, J. C. Burant, S. S. Iyengar, 
 J. Tomasi, M. Cossi, J. M. Millam, M. Klene, C. Adamo, R. Cammi, 
 J. W. Ochterski, R. L. Martin, K. Morokuma, O. Farkas, 
 J. B. Foresman, and D. J. Fox, Gaussian, Inc., Wallingford CT, 2016.
 
 ******************************************
 Gaussian 16:  ES64L-G16RevB.01 20-Dec-2017
                 3-Aug-2020 
 ******************************************
 %chk=meso-TS_55_2_xp-105.chk
 %nproc=24
 Will use up to   24 processors via shared memory.
 %mem=48GB
 ----------------------------------------------------------------------
 #p uwb97xd guess=mix def2tzvp # scrf=(iefpcm,solvent=Cyclohexane,read)
  nosym guess=only pop=none
 ----------------------------------------------------------------------
 1/38=1,40=2,172=1/1;
 2/12=2,15=1,17=6,18=5,40=1/2;
 3/5=44,7=101,11=2,25=1,30=1,70=2203,72=17,74=-58,89=1,116=2/1,2;
 4/13=-1/1;
 99/5=2/99;
 Leave Link    1 at Mon Aug  3 17:22:29 2020, MaxMem=  6442450944 cpu:               1.6 elap:               0.1
 (Enter /scratch/scicomp/CentOS/7.3.1611/Haswell/software/Gaussian/g16/l101.exe)
 -----------------------
 endo-2 xp-pcm for eta=3
 -----------------------
 Symbolic Z-matrix:
 Charge =  0 Multiplicity = 1
 6                    -3.12716  -0.44139   0.26581 
 6                    -0.74278  -0.25368  -1.25379 
 1                    -4.06659  -0.53163   0.79885 
 1                     0.20497  -0.1725   -1.77163 
 6                     1.17538   1.42747   0.80302 
 6                     0.74278   0.25368   1.25379 
 1                     0.58291   2.32407   0.941 
 1                    -0.20497   0.1725    1.77163 
 6                     1.57459  -0.98981   1.12726 
 1                     2.11611  -1.12215   2.07269 
 1                     0.92754  -1.86179   1.02529 
 6                     2.46088   1.53095   0.11177 
 1                     2.86025   2.51601  -0.0982 
 6                     3.12716   0.44139  -0.26581 
 1                     4.06659   0.53163  -0.79885 
 6                     2.57273  -0.93795  -0.03439 
 1                     2.09129  -1.274    -0.96099 
 1                     3.38476  -1.64457   0.14749 
[...]
 6                    -0.74278  -0.25368  -1.25379 
 1                    -4.06659  -0.53163   0.79885 
 1                     0.20497  -0.1725   -1.77163 
 6                     1.17538   1.42747   0.80302 
 6                     0.74278   0.25368   1.25379 
 1                     0.58291   2.32407   0.941 
 1                    -0.20497   0.1725    1.77163 
 6                     1.57459  -0.98981   1.12726 
 1                     2.11611  -1.12215   2.07269 
 1                     0.92754  -1.86179   1.02529 
 6                     2.46088   1.53095   0.11177 
 1                     2.86025   2.51601  -0.0982 
 6                     3.12716   0.44139  -0.26581 
 1                     4.06659   0.53163  -0.79885 
 6                     2.57273  -0.93795  -0.03439 
 1                     2.09129  -1.274    -0.96099 
 1                     3.38476  -1.64457   0.14749 
 6                    -1.17538  -1.42747  -0.80302 
 1                    -0.58291  -2.32407  -0.941 
 6                    -2.46088  -1.53095  -0.11177 
 1                    -2.86025  -2.51601   0.0982 
 6                    -1.57459   0.98981  -1.12726 
 1                    -0.92754   1.86179  -1.02529 
 1                    -2.11611   1.12215  -2.07269 
 6                    -2.57273   0.93795   0.03439 
 1                    -3.38476   1.64457  -0.14749 
 1                    -2.09129   1.274     0.96099 
 
 ITRead=  0  0  0  0  0  0  0  0  0  0  0  0  0  0  0  0  0  0  0  0
 ITRead=  0  0  0  0  0  0  0  0
 MicOpt= -1 -1 -1 -1 -1 -1 -1 -1 -1 -1 -1 -1 -1 -1 -1 -1 -1 -1 -1 -1
 MicOpt= -1 -1 -1 -1 -1 -1 -1 -1
 NAtoms=     28 NQM=       28 NQMF=       0 NMMI=      0 NMMIF=      0
                NMic=       0 NMicF=      0.
                    Isotopes and Nuclear Properties:
 (Nuclear quadrupole moments (NQMom) in fm**2, nuclear magnetic moments (NMagM)
  in nuclear magnetons)

  Atom         1           2           3           4           5           6           7           8           9          10
 IAtWgt=          12          12           1           1          12          12           1           1          12           1
 AtmWgt=  12.0000000  12.0000000   1.0078250   1.0078250  12.0000000  12.0000000   1.0078250   1.0078250  12.0000000   1.0078250
 NucSpn=           0           0           1           1           0           0           1           1           0           1
 AtZEff=  -0.0000000  -0.0000000  -0.0000000  -0.0000000  -0.0000000  -0.0000000  -0.0000000  -0.0000000  -0.0000000  -0.0000000
 NQMom=    0.0000000   0.0000000   0.0000000   0.0000000   0.0000000   0.0000000   0.0000000   0.0000000   0.0000000   0.0000000
 NMagM=    0.0000000   0.0000000   2.7928460   2.7928460   0.0000000   0.0000000   2.7928460   2.7928460   0.0000000   2.7928460
 AtZNuc=   6.0000000   6.0000000   1.0000000   1.0000000   6.0000000   6.0000000   1.0000000   1.0000000   6.0000000   1.0000000

  Atom        11          12          13          14          15          16          17          18          19          20
 IAtWgt=           1          12           1          12           1          12           1           1          12           1
 AtmWgt=   1.0078250  12.0000000   1.0078250  12.0000000   1.0078250  12.0000000   1.0078250   1.0078250  12.0000000   1.0078250
 NucSpn=           1           0           1           0           1           0           1           1           0           1
 AtZEff=  -0.0000000  -0.0000000  -0.0000000  -0.0000000  -0.0000000  -0.0000000  -0.0000000  -0.0000000  -0.0000000  -0.0000000
 NQMom=    0.0000000   0.0000000   0.0000000   0.0000000   0.0000000   0.0000000   0.0000000   0.0000000   0.0000000   0.0000000
 NMagM=    2.7928460   0.0000000   2.7928460   0.0000000   2.7928460   0.0000000   2.7928460   2.7928460   0.0000000   2.7928460
 AtZNuc=   1.0000000   6.0000000   1.0000000   6.0000000   1.0000000   6.0000000   1.0000000   1.0000000   6.0000000   1.0000000

  Atom        21          22          23          24          25          26          27          28
 IAtWgt=          12           1          12           1           1          12           1           1
 AtmWgt=  12.0000000   1.0078250  12.0000000   1.0078250   1.0078250  12.0000000   1.0078250   1.0078250
 NucSpn=           0           1           0           1           1           0           1           1
 AtZEff=  -0.0000000  -0.0000000  -0.0000000  -0.0000000  -0.0000000  -0.0000000  -0.0000000  -0.0000000
 NQMom=    0.0000000   0.0000000   0.0000000   0.0000000   0.0000000   0.0000000   0.0000000   0.0000000
 NMagM=    0.0000000   2.7928460   0.0000000   2.7928460   2.7928460   0.0000000   2.7928460   2.7928460
 AtZNuc=   6.0000000   1.0000000   6.0000000   1.0000000   1.0000000   6.0000000   1.0000000   1.0000000
 Leave Link  101 at Mon Aug  3 17:22:41 2020, MaxMem=  6442450944 cpu:               2.4 elap:               0.1
 (Enter /scratch/scicomp/CentOS/7.3.1611/Haswell/software/Gaussian/g16/l202.exe)
                          Input orientation:                          
 ---------------------------------------------------------------------
 Center     Atomic      Atomic             Coordinates (Angstroms)
 Number     Number       Type             X           Y           Z
 ---------------------------------------------------------------------
      1          6           0       -3.127160   -0.441387    0.265808
      2          6           0       -0.742781   -0.253682   -1.253790
      3          1           0       -4.066590   -0.531634    0.798854
      4          1           0        0.204971   -0.172502   -1.771631
      5          6           0        1.175378    1.427467    0.803019
      6          6           0        0.742781    0.253682    1.253790
      7          1           0        0.582914    2.324068    0.940997
      8          1           0       -0.204971    0.172502    1.771631
      9          6           0        1.574588   -0.989808    1.127258
     10          1           0        2.116105   -1.122154    2.072691
     11          1           0        0.927535   -1.861790    1.025285
     12          6           0        2.460878    1.530950    0.111768
     13          1           0        2.860246    2.516008   -0.098202
     14          6           0        3.127160    0.441387   -0.265808
     15          1           0        4.066590    0.531634   -0.798854
     16          6           0        2.572730   -0.937949   -0.034385
     17          1           0        2.091291   -1.273998   -0.960989
     18          1           0        3.384763   -1.644565    0.147485
     19          6           0       -1.175378   -1.427467   -0.803019
     20          1           0       -0.582914   -2.324068   -0.940997
     21          6           0       -2.460878   -1.530950   -0.111768
     22          1           0       -2.860246   -2.516008    0.098202
     23          6           0       -1.574588    0.989808   -1.127258
     24          1           0       -0.927535    1.861790   -1.025285
     25          1           0       -2.116105    1.122154   -2.072691
     26          6           0       -2.572730    0.937949    0.034385
     27          1           0       -3.384763    1.644565   -0.147485
     28          1           0       -2.091291    1.273998    0.960989
 ---------------------------------------------------------------------
                    Distance matrix (angstroms):
                    1          2          3          4          5
     1  C    0.000000
     2  C    2.833668   0.000000
     3  H    1.083887   3.916416   0.000000
     4  H    3.914914   1.083044   4.998260   0.000000
     5  C    4.721551   3.276593   5.596099   3.182831   0.000000
     6  C    4.054093   2.958424   4.894256   3.102264   1.329701
     7  H    4.676352   3.635843   5.458308   3.705948   1.083487
     8  H    3.344182   3.102264   4.044033   3.583544   2.102025
     9  C    4.811372   3.403156   5.669273   3.308685   2.471380
    10  H    5.587495   4.471348   6.340118   4.396940   2.999600
    11  H    4.362901   3.251177   5.173188   3.346421   3.306061
    12  C    5.927901   3.913194   6.879984   3.396772   1.463232
    13  H    6.687879   4.689176   7.620623   4.132667   2.199068
    14  C    6.338645   4.054093   7.336914   3.344182   2.433968
    15  H    7.336914   4.894256   8.356544   4.044033   3.424561
    16  C    5.729349   3.598303   6.703727   3.034834   2.872113
    17  H    5.424989   3.026341   6.447298   2.329944   3.353883
    18  H    6.623200   4.575450   7.562113   3.995129   3.840376
    19  C    2.433968   1.329701   3.424561   2.102025   4.031880
    20  H    3.387337   2.099975   4.286712   2.437202   4.495242
    21  C    1.331782   2.426414   2.099089   3.421590   4.776131
    22  H    2.098425   3.380778   2.425679   4.287639   5.686301
    23  C    2.529710   1.501393   3.497823   2.221038   3.388189
    24  H    3.436553   2.135783   4.348520   2.444984   2.820208
    25  H    2.989226   2.109394   3.845150   2.674727   4.381414
    26  C    1.504499   2.535368   2.230629   3.494341   3.857297
    27  H    2.142047   3.436178   2.469066   4.338868   4.663204
    28  H    2.121049   3.009573   2.681119   3.851285   3.274085
                    6          7          8          9         10
     6  C    0.000000
     7  H    2.099975   0.000000
     8  H    1.083044   2.437202   0.000000
     9  C    1.501393   3.464085   2.221038   0.000000
    10  H    2.109394   3.938001   2.674727   1.097543   0.000000
    11  H    2.135783   4.200866   2.444984   1.090609   1.748376
    12  C    2.426414   2.200774   3.421590   2.858488   3.317084
    13  H    3.380778   2.510581   4.287639   3.930065   4.301482
    14  C    2.833668   3.387337   3.914914   2.529710   2.989226
    15  H    3.916416   4.286712   4.998260   3.497823   3.845150
    16  C    2.535368   3.943538   3.494341   1.532446   2.163841
    17  H    3.009573   4.340372   3.851285   2.169913   3.037579
    18  H    3.436178   4.922405   4.338868   2.159953   2.364069
    19  C    3.276593   4.495242   3.182831   3.388189   4.381414
    20  H    3.635843   5.148420   3.705948   3.273033   4.220381
    21  C    3.913194   5.023360   3.396772   4.255938   5.088000
    22  H    4.689176   5.999332   4.132667   4.801666   5.532224
    23  C    3.403156   3.273033   3.308685   4.349601   5.321773
    24  H    3.251177   2.522186   3.346421   4.361843   5.269262
    25  H    4.471348   4.220381   4.396940   5.321773   6.335038
    26  C    3.598303   3.563897   3.034834   4.702219   5.512158
    27  H    4.575450   4.170009   3.995129   5.758477   6.545492
    28  H    3.026341   2.873050   2.329944   4.311743   4.967857
                   11         12         13         14         15
    11  H    0.000000
    12  C    3.833580   0.000000
    13  H    4.915558   1.083477   0.000000
    14  C    3.436553   1.331782   2.098425   0.000000
    15  H    4.348520   2.099089   2.425679   1.083887   0.000000
    16  C    2.164035   2.475749   3.466491   1.504499   2.230629
    17  H    2.375944   3.025745   3.962302   2.121049   2.681119
    18  H    2.618337   3.307376   4.200696   2.142047   2.469066
    19  C    2.820208   4.776131   5.686301   4.721551   5.596099
    20  H    2.522186   5.023360   5.999332   4.676352   5.458308
    21  C    3.589385   5.800766   6.685238   5.927901   6.879984
    22  H    3.954083   6.685238   7.621272   6.687879   7.620623
    23  C    4.361843   4.255938   4.801666   4.811372   5.669273
    24  H    4.638014   3.589385   3.954083   4.362901   5.173188
    25  H    5.269262   5.088000   5.532224   5.587495   6.340118
    26  C    4.590455   5.069009   5.659070   5.729349   6.703727
    27  H    5.680302   5.852490   6.305710   6.623200   7.562113
    28  H    4.353230   4.637827   5.213654   5.424989   6.447298
                   16         17         18         19         20
    16  C    0.000000
    17  H    1.096954   0.000000
    18  H    1.091687   1.743303   0.000000
    19  C    3.857297   3.274085   4.663204   0.000000
    20  H    3.563897   2.873050   4.170009   1.083487   0.000000
    21  C    5.069009   4.637827   5.852490   1.463232   2.200774
    22  H    5.659070   5.213654   6.305710   2.199068   2.510581
    23  C    4.702219   4.311743   5.758477   2.471380   3.464085
    24  H    4.590455   4.353230   5.680302   3.306061   4.200866
    25  H    5.512158   4.967857   6.545492   2.999600   3.938001
    26  C    5.477178   5.257050   6.494143   2.872113   3.943538
    27  H    6.494143   6.258352   7.532056   3.840376   4.922405
    28  H    5.257050   5.261205   6.258352   3.353883   4.340372
                   21         22         23         24         25
    21  C    0.000000
    22  H    1.083477   0.000000
    23  C    2.858488   3.930065   0.000000
    24  H    3.833580   4.915558   1.090609   0.000000
    25  H    3.317084   4.301482   1.097543   1.748376   0.000000
    26  C    2.475749   3.466491   1.532446   2.164035   2.163841
    27  H    3.307376   4.200696   2.159953   2.618337   2.364069
    28  H    3.025745   3.962302   2.169913   2.375944   3.037579
                   26         27         28
    26  C    0.000000
    27  H    1.091687   0.000000
    28  H    1.096954   1.743303   0.000000
 Symmetry turned off by external request.
 Stoichiometry    C12H16
 Framework group  CI[X(C12H16)]
 Deg. of freedom    39
 Full point group                 CI      NOp   2
 Rotational constants (GHZ):           1.7477464           0.5912905           0.5348176
 Leave Link  202 at Mon Aug  3 17:22:41 2020, MaxMem=  6442450944 cpu:               0.3 elap:               0.0
 (Enter /scratch/scicomp/CentOS/7.3.1611/Haswell/software/Gaussian/g16/l301.exe)
 Standard basis: def2TZVP (5D, 7F)
 Ernie: Thresh=  0.10000D-02 Tol=  0.10000D-05 Strict=F.
   468 basis functions,   740 primitive gaussians,   528 cartesian basis functions
    44 alpha electrons       44 beta electrons
       nuclear repulsion energy       675.2444009835 Hartrees.
 IExCor= 4639 DFT=T Ex+Corr=wB97XD ExCW=0 ScaHFX=  1.000000
 ScaDFX=  1.000000  1.000000  1.000000  1.000000 ScalE2=  1.000000  1.000000
 IRadAn=      5 IRanWt=     -1 IRanGd=            0 ICorTp=0 IEmpDi=121
 HFx  wShort=  0.000000 wLong=  0.200000 cFull=  0.222036 cShort=  0.000000 cLong=  0.777964
 DFx  wShort=  0.000000 wLong=  0.200000 cFull=  0.000000 cShort=  0.000000 cLong=  1.000000
 NAtoms=   28 NActive=   28 NUniq=   28 SFac= 1.00D+00 NAtFMM=   60 NAOKFM=F Big=F
 Integral buffers will be    131072 words long.
 Raffenetti 2 integral format.
 Two-electron integral symmetry is turned off.
 R6Disp:  Grimme-D2 Dispersion energy=       -0.0220448925 Hartrees.
 Nuclear repulsion after empirical dispersion term =      675.2223560911 Hartrees.
 Using the following non-standard input for PCM:
 qrep pcmdoc geomview  nodis nocav g03defaults tsare=0.075
 Warning! Using old PCM defaults because the g03defaults keyword was found.
 These settings can be overridden by following keywords.
 nsfe=28
 NVESolv=36  SolvMW=84.1595   Rsolv=2.815
 eps=2.0165 RhoS=0.7781
 --- end of non-standard input.
 Reading user-defined spheres from input:
 ISph  on   Nord    Re0     Alpha      Xe            Ye            Ze
 --- end of user-defined spheres data.
 ------------------------------------------------------------------------------
 Polarizable Continuum Model (PCM)
 =================================
 Model                : PCM.
 Atomic radii         : UA0 (Simple United Atom Topological Model).
 Polarization charges : Total charges.
 Charge compensation  : None.
 Solution method      : On-the-fly selection.
 Cavity type          : SES (Solvent Excluding Surface) (Alpha=1.000).
 Cavity algorithm     : GePol (RMin=0.200 OFac=0.890).
                        User-defined sphere list used, NSphG=   28.
                        Tesserae with average area of 0.075 Ang**2.
                        Smoothing algorithm: None.
                        Polarization charges: point-like.
                        Self-potential: constant (ISelfS= 1).
                        Self-field    : global E.n sum rule (ISelfD= 3).
 Solvent              : CycloHexane, Eps=   2.016500 Eps(inf)=   2.035188
                        RSolv=   2.815000 Ang.
 ------------------------------------------------------------------------------
 GePol: Number of generator spheres                  =      28
 GePol: Total number of spheres                      =     503
 GePol: Number of exposed spheres                    =     321 ( 63.82%)
 GePol: Number of tesserae                           =    4711
 GePol: Average area of tesserae                     =       0.04 Ang**2
 GePol: Minimum area of tessera                      =   0.10D-02 Ang**2
 GePol: Maximum area of tessera                      =    0.12513 Ang**2
 GePol: Number of small tesserae                     =       0
 GePol: Fraction of small tesserae (<1% of avg)      =       0.00%
 GePol: Total count of vertices                      =   17801
 GePol: Maximum number of vertices in a tessera      =       8
 GePol: Cavity surface area                          =    187.322 Ang**2
 GePol: Cavity volume                                =    185.935 Ang**3
 Leave Link  301 at Mon Aug  3 17:22:41 2020, MaxMem=  6442450944 cpu:              12.4 elap:               0.6
 (Enter /scratch/scicomp/CentOS/7.3.1611/Haswell/software/Gaussian/g16/l302.exe)
 NPDir=0 NMtPBC=     1 NCelOv=     1 NCel=       1 NClECP=     1 NCelD=      1
         NCelK=      1 NCelE2=     1 NClLst=     1 CellRange=     0.0.
 One-electron integrals computed using PRISM.
   1 Symmetry operations used in ECPInt.
 ECPInt:  NShTT=   19306 NPrTT=   56928 LenC2=   18475 LenP2D=   41881.
 LDataN:  DoStor=T MaxTD1= 6 Len=  172
 NBasis=   468 RedAO= T EigKep=  2.45D-05  NBF=   468
 NBsUse=   468 1.00D-06 EigRej= -1.00D+00 NBFU=   468
 Precomputing XC quadrature grid using
 IXCGrd= 4 IRadAn=           5 IRanWt=          -1 IRanGd=           0 AccXCQ= 0.00D+00.
 Generated NRdTot=       0 NPtTot=           0 NUsed=           0 NTot=          32
 NSgBfM=   526   526   526   526   526 MxSgAt=    28 MxSgA2=    28.
 Leave Link  302 at Mon Aug  3 17:22:42 2020, MaxMem=  6442450944 cpu:              11.8 elap:               0.5
 (Enter /scratch/scicomp/CentOS/7.3.1611/Haswell/software/Gaussian/g16/l401.exe)
 ExpMin= 9.52D-02 ExpMax= 1.36D+04 ExpMxC= 4.63D+02 IAcc=3 IRadAn=         5 AccDes= 0.00D+00
 Harris functional with IExCor= 4639 and IRadAn=       5 diagonalized for initial guess.
 HarFok:  IExCor= 4639 AccDes= 0.00D+00 IRadAn=         5 IDoV= 1 UseB2=F ITyADJ=14
 ICtDFT=  3500011 ScaDFX=  1.000000  1.000000  1.000000  1.000000
 FoFCou: FMM=F IPFlag=           0 FMFlag=      100000 FMFlg1=           0
         NFxFlg=           0 DoJE=T BraDBF=F KetDBF=T FulRan=T
         wScrn=  0.000000 ICntrl=       500 IOpCl=  0 I1Cent=   200000004 NGrid=           0
         NMat0=    1 NMatS0=      1 NMatT0=    0 NMatD0=    1 NMtDS0=    0 NMtDT0=    0
 Symmetry not used in FoFCou.
 Harris En= -444.635372070846    
 JPrj=0 DoOrth=F DoCkMO=T.
 Mixing orbitals, IMix= 1 IMixAn=  0 NRI=1 NE=   44 Coef=  7.07106781D-01  7.07106781D-01
 Mixing orbitals, IMix= 1 IMixAn=  0 NRI=1 NE=   44 Coef= -7.07106781D-01  7.07106781D-01
 Initial guess <Sx>= 0.0000 <Sy>= 0.0000 <Sz>= 0.0000 <S**2>= 1.0000 S= 0.6180
 Leave Link  401 at Mon Aug  3 17:22:44 2020, MaxMem=  6442450944 cpu:              47.6 elap:               2.0
 (Enter /scratch/scicomp/CentOS/7.3.1611/Haswell/software/Gaussian/g16/l9999.exe)

 This type of calculation cannot be archived.


 IT'S WHAT A FELLER THINKS HE KNOWS THAT HURTS HIM...
                    ------
           KIN HUBBARD
 Job cpu time:       0 days  0 hours  1 minutes 17.1 seconds.
 Elapsed time:       0 days  0 hours  0 minutes  3.5 seconds.
 File lengths (MBytes):  RWF=    407 Int=      0 D2E=      0 Chk=      1 Scr=      1
 Normal termination of Gaussian 16 at Mon Aug  3 17:22:44 2020.
