 Entering Gaussian System, Link 0=g16
 Input=meso-TS_85_2_pcm.com
 Output=meso-TS_85_2_pcm.log
 Initial command:
 /scratch/scicomp/CentOS/7.3.1611/Haswell/software/Gaussian/g16/l1.exe "/scratch/bochen/cyclohexadiene-dimerization/wb97xd-def2tzvp/xp-pcm/meso/Gau-10634.inp" -scrdir="/scratch/bochen/cyclohexadiene-dimerization/wb97xd-def2tzvp/xp-pcm/meso/"
 Entering Link 1 = /scratch/scicomp/CentOS/7.3.1611/Haswell/software/Gaussian/g16/l1.exe PID=     10640.
  
 Copyright (c) 1988-2017, Gaussian, Inc.  All Rights Reserved.
  
 This is part of the Gaussian(R) 16 program.  It is based on
 the Gaussian(R) 09 system (copyright 2009, Gaussian, Inc.),
 the Gaussian(R) 03 system (copyright 2003, Gaussian, Inc.),
 the Gaussian(R) 98 system (copyright 1998, Gaussian, Inc.),
 the Gaussian(R) 94 system (copyright 1995, Gaussian, Inc.),
 the Gaussian 92(TM) system (copyright 1992, Gaussian, Inc.),
 the Gaussian 90(TM) system (copyright 1990, Gaussian, Inc.),
 the Gaussian 88(TM) system (copyright 1988, Gaussian, Inc.),
 the Gaussian 86(TM) system (copyright 1986, Carnegie Mellon
 University), and the Gaussian 82(TM) system (copyright 1983,
 Carnegie Mellon University). Gaussian is a federally registered
 trademark of Gaussian, Inc.
  
 This software contains proprietary and confidential information,
 including trade secrets, belonging to Gaussian, Inc.
  
 This software is provided under written license and may be
 used, copied, transmitted, or stored only in accord with that
 written license.
  
 The following legend is applicable only to US Government
 contracts under FAR:
  
                    RESTRICTED RIGHTS LEGEND
  
 Use, reproduction and disclosure by the US Government is
 subject to restrictions as set forth in subparagraphs (a)
 and (c) of the Commercial Computer Software - Restricted
 Rights clause in FAR 52.227-19.
  
 Gaussian, Inc.
 340 Quinnipiac St., Bldg. 40, Wallingford CT 06492
  
  
 ---------------------------------------------------------------
 Warning -- This program may not be used in any manner that
 competes with the business of Gaussian, Inc. or will provide
 assistance to any competitor of Gaussian, Inc.  The licensee
 of this program is prohibited from giving any competitor of
 Gaussian, Inc. access to this program.  By using this program,
 the user acknowledges that Gaussian, Inc. is engaged in the
 business of creating and licensing software in the field of
 computational chemistry and represents and warrants to the
 licensee that it is not a competitor of Gaussian, Inc. and that
 it will not use this program in any manner prohibited above.
 ---------------------------------------------------------------
  

 Cite this work as:
 Gaussian 16, Revision B.01,
 M. J. Frisch, G. W. Trucks, H. B. Schlegel, G. E. Scuseria, 
 M. A. Robb, J. R. Cheeseman, G. Scalmani, V. Barone, 
 G. A. Petersson, H. Nakatsuji, X. Li, M. Caricato, A. V. Marenich, 
 J. Bloino, B. G. Janesko, R. Gomperts, B. Mennucci, H. P. Hratchian, 
 J. V. Ortiz, A. F. Izmaylov, J. L. Sonnenberg, D. Williams-Young, 
 F. Ding, F. Lipparini, F. Egidi, J. Goings, B. Peng, A. Petrone, 
 T. Henderson, D. Ranasinghe, V. G. Zakrzewski, J. Gao, N. Rega, 
 G. Zheng, W. Liang, M. Hada, M. Ehara, K. Toyota, R. Fukuda, 
 J. Hasegawa, M. Ishida, T. Nakajima, Y. Honda, O. Kitao, H. Nakai, 
 T. Vreven, K. Throssell, J. A. Montgomery, Jr., J. E. Peralta, 
 F. Ogliaro, M. J. Bearpark, J. J. Heyd, E. N. Brothers, K. N. Kudin, 
 V. N. Staroverov, T. A. Keith, R. Kobayashi, J. Normand, 
 K. Raghavachari, A. P. Rendell, J. C. Burant, S. S. Iyengar, 
 J. Tomasi, M. Cossi, J. M. Millam, M. Klene, C. Adamo, R. Cammi, 
 J. W. Ochterski, R. L. Martin, K. Morokuma, O. Farkas, 
 J. B. Foresman, and D. J. Fox, Gaussian, Inc., Wallingford CT, 2016.
 
 ******************************************
 Gaussian 16:  ES64L-G16RevB.01 20-Dec-2017
                 3-Aug-2020 
 ******************************************
 %nproc=24
 Will use up to   24 processors via shared memory.
 %mem=48GB
 ----------------------------------------------------------------------
 #p uwb97xd guess=mix def2tzvp # scrf=(iefpcm,solvent=Cyclohexane,read)
  nosym 6d 10f
 ----------------------------------------------------------------------
 1/38=1,40=2,172=1/1;
 2/12=2,15=1,17=6,18=5,40=1/2;
 3/5=44,7=101,8=22,11=2,25=1,30=1,70=2203,72=17,74=-58,116=2/1,2,3;
 4/13=-1/1;
 5/5=2,38=5,53=17/2;
 6/7=2,8=2,9=2,10=2,28=1/1;
 99/5=1,9=1/99;
 Leave Link    1 at Mon Aug  3 13:42:11 2020, MaxMem=  6442450944 cpu:               2.0 elap:               0.1
 (Enter /scratch/scicomp/CentOS/7.3.1611/Haswell/software/Gaussian/g16/l101.exe)
 -----------------------
 endo-2 xp-pcm for eta=3
 -----------------------
 Symbolic Z-matrix:
 Charge =  0 Multiplicity = 1
 6                    -3.10656  -0.43738   0.29194 
 6                    -0.84844  -0.28319  -1.41236 
 1                    -4.00958  -0.50962   0.88693 
 1                     0.05994  -0.21558  -1.99903 
 6                     1.25045   1.44814   0.9104 
 6                     0.84844   0.28319   1.41236 
 1                     0.67092   2.3492    1.07337 
 1                    -0.05994   0.21558   1.99903 
 6                     1.67109  -0.96135   1.23751 
 1                     2.31691  -1.06727   2.11928 
 1                     1.02412  -1.84005   1.22447 
 6                     2.49149   1.53748   0.13881 
 1                     2.89451   2.51724  -0.08812 
 6                     3.10656   0.43738  -0.29194 
 1                     4.00958   0.50962  -0.88693 
 6                     2.52739  -0.92595  -0.03 
 1                     1.91689  -1.21141  -0.89542 
 1                     3.32181  -1.67133   0.03759 
 6                    -1.25045  -1.44814  -0.9104 
 1                    -0.67092  -2.3492   -1.07337 
 6                    -2.49149  -1.53748  -0.13881 
 1                    -2.89451  -2.51724   0.08812 
 6                    -1.67109   0.96135  -1.23751 
 1                    -1.02412   1.84005  -1.22447 
 1                    -2.31691   1.06727  -2.11928 
 6                    -2.52739   0.92595   0.03 
 1                    -3.32181   1.67133  -0.03759 
 1                    -1.91689   1.21141   0.89542 
 
 ITRead=  0  0  0  0  0  0  0  0  0  0  0  0  0  0  0  0  0  0  0  0
 ITRead=  0  0  0  0  0  0  0  0
 MicOpt= -1 -1 -1 -1 -1 -1 -1 -1 -1 -1 -1 -1 -1 -1 -1 -1 -1 -1 -1 -1
 MicOpt= -1 -1 -1 -1 -1 -1 -1 -1
 NAtoms=     28 NQM=       28 NQMF=       0 NMMI=      0 NMMIF=      0
                NMic=       0 NMicF=      0.
                    Isotopes and Nuclear Properties:
 (Nuclear quadrupole moments (NQMom) in fm**2, nuclear magnetic moments (NMagM)
  in nuclear magnetons)

  Atom         1           2           3           4           5           6           7           8           9          10
 IAtWgt=          12          12           1           1          12          12           1           1          12           1
 AtmWgt=  12.0000000  12.0000000   1.0078250   1.0078250  12.0000000  12.0000000   1.0078250   1.0078250  12.0000000   1.0078250
 NucSpn=           0           0           1           1           0           0           1           1           0           1
 AtZEff=  -0.0000000  -0.0000000  -0.0000000  -0.0000000  -0.0000000  -0.0000000  -0.0000000  -0.0000000  -0.0000000  -0.0000000
 NQMom=    0.0000000   0.0000000   0.0000000   0.0000000   0.0000000   0.0000000   0.0000000   0.0000000   0.0000000   0.0000000
 NMagM=    0.0000000   0.0000000   2.7928460   2.7928460   0.0000000   0.0000000   2.7928460   2.7928460   0.0000000   2.7928460
 AtZNuc=   6.0000000   6.0000000   1.0000000   1.0000000   6.0000000   6.0000000   1.0000000   1.0000000   6.0000000   1.0000000

  Atom        11          12          13          14          15          16          17          18          19          20
 IAtWgt=           1          12           1          12           1          12           1           1          12           1
 AtmWgt=   1.0078250  12.0000000   1.0078250  12.0000000   1.0078250  12.0000000   1.0078250   1.0078250  12.0000000   1.0078250
 NucSpn=           1           0           1           0           1           0           1           1           0           1
 AtZEff=  -0.0000000  -0.0000000  -0.0000000  -0.0000000  -0.0000000  -0.0000000  -0.0000000  -0.0000000  -0.0000000  -0.0000000
 NQMom=    0.0000000   0.0000000   0.0000000   0.0000000   0.0000000   0.0000000   0.0000000   0.0000000   0.0000000   0.0000000
 NMagM=    2.7928460   0.0000000   2.7928460   0.0000000   2.7928460   0.0000000   2.7928460   2.7928460   0.0000000   2.7928460
 AtZNuc=   1.0000000   6.0000000   1.0000000   6.0000000   1.0000000   6.0000000   1.0000000   1.0000000   6.0000000   1.0000000

  Atom        21          22          23          24          25          26          27          28
 IAtWgt=          12           1          12           1           1          12           1           1
 AtmWgt=  12.0000000   1.0078250  12.0000000   1.0078250   1.0078250  12.0000000   1.0078250   1.0078250
 NucSpn=           0           1           0           1           1           0           1           1
 AtZEff=  -0.0000000  -0.0000000  -0.0000000  -0.0000000  -0.0000000  -0.0000000  -0.0000000  -0.0000000
 NQMom=    0.0000000   0.0000000   0.0000000   0.0000000   0.0000000   0.0000000   0.0000000   0.0000000
 NMagM=    0.0000000   2.7928460   0.0000000   2.7928460   2.7928460   0.0000000   2.7928460   2.7928460
 AtZNuc=   6.0000000   1.0000000   6.0000000   1.0000000   1.0000000   6.0000000   1.0000000   1.0000000
 Leave Link  101 at Mon Aug  3 13:42:11 2020, MaxMem=  6442450944 cpu:               2.4 elap:               0.1
 (Enter /scratch/scicomp/CentOS/7.3.1611/Haswell/software/Gaussian/g16/l202.exe)
                          Input orientation:                          
 ---------------------------------------------------------------------
 Center     Atomic      Atomic             Coordinates (Angstroms)
 Number     Number       Type             X           Y           Z
 ---------------------------------------------------------------------
      1          6           0       -3.106560   -0.437378    0.291938
      2          6           0       -0.848443   -0.283188   -1.412362
      3          1           0       -4.009580   -0.509623    0.886930
      4          1           0        0.059937   -0.215575   -1.999027
      5          6           0        1.250446    1.448137    0.910401
      6          6           0        0.848443    0.283188    1.412362
      7          1           0        0.670918    2.349204    1.073365
      8          1           0       -0.059937    0.215575    1.999027
      9          6           0        1.671088   -0.961349    1.237510
     10          1           0        2.316912   -1.067273    2.119278
     11          1           0        1.024124   -1.840049    1.224471
     12          6           0        2.491494    1.537477    0.138807
     13          1           0        2.894509    2.517243   -0.088123
     14          6           0        3.106560    0.437378   -0.291938
     15          1           0        4.009580    0.509623   -0.886930
     16          6           0        2.527393   -0.925952   -0.029998
     17          1           0        1.916886   -1.211409   -0.895423
     18          1           0        3.321807   -1.671334    0.037592
     19          6           0       -1.250446   -1.448137   -0.910401
     20          1           0       -0.670918   -2.349204   -1.073365
     21          6           0       -2.491494   -1.537477   -0.138807
     22          1           0       -2.894509   -2.517243    0.088123
     23          6           0       -1.671088    0.961349   -1.237510
     24          1           0       -1.024124    1.840049   -1.224471
     25          1           0       -2.316912    1.067273   -2.119278
     26          6           0       -2.527393    0.925952    0.029998
     27          1           0       -3.321807    1.671334   -0.037592
     28          1           0       -1.916886    1.211409    0.895423
 ---------------------------------------------------------------------
                    Distance matrix (angstroms):
                    1          2          3          4          5
     1  C    0.000000
     2  C    2.833285   0.000000
     3  H    1.083827   3.915457   0.000000
     4  H    3.914642   1.083467   4.997617   0.000000
     5  C    4.787605   3.577436   5.612597   3.556687   0.000000
     6  C    4.173322   3.343541   4.950254   3.536677   1.330668
     7  H    4.758677   3.926421   5.487687   4.048578   1.083666
     8  H    3.552803   3.536677   4.166816   4.023021   2.102717
     9  C    4.898426   3.718839   5.709374   3.691498   2.467704
    10  H    5.757603   4.806947   6.469479   4.772815   2.987645
    11  H    4.460903   3.589319   5.217484   3.736243   3.310895
    12  C    5.938157   4.108056   6.856695   3.681847   1.464083
    13  H    6.699781   4.858571   7.601256   4.376602   2.200677
    14  C    6.301505   4.173322   7.275025   3.552803   2.431545
    15  H    7.275025   4.950254   8.276012   4.166816   3.424037
    16  C    5.664254   3.704098   6.614084   3.235746   2.855038
    17  H    5.219575   2.962409   6.228345   2.378631   3.283036
    18  H    6.550667   4.628207   7.471291   4.111794   3.844923
    19  C    2.431545   1.330668   3.424037   2.102717   4.237710
    20  H    3.384004   2.101156   4.286430   2.437903   4.695398
    21  C    1.331940   2.427921   2.100763   3.423104   4.900698
    22  H    2.100558   3.380657   2.431463   4.287496   5.794914
    23  C    2.521156   1.502062   3.485046   2.227444   3.658667
    24  H    3.438417   2.138762   4.346484   2.449636   3.144033
    25  H    2.949827   2.116572   3.793285   2.703622   4.695749
    26  C    1.504233   2.522161   2.234298   3.480561   3.914059
    27  H    2.145131   3.439139   2.466647   4.340950   4.674827
    28  H    2.120853   2.949790   2.709500   3.784436   3.176202
                    6          7          8          9         10
     6  C    0.000000
     7  H    2.101156   0.000000
     8  H    1.083467   2.437903   0.000000
     9  C    1.502062   3.462231   2.227444   0.000000
    10  H    2.116572   3.933897   2.703622   1.098100   0.000000
    11  H    2.138762   4.206831   2.449636   1.091259   1.751903
    12  C    2.427921   2.201544   3.423104   2.850324   3.276807
    13  H    3.380657   2.514289   4.287496   3.918503   4.249117
    14  C    2.833285   3.384004   3.914642   2.521156   2.949827
    15  H    3.915457   4.286430   4.997617   3.485046   3.793285
    16  C    2.522161   3.923080   3.480561   1.530061   2.164177
    17  H    2.949790   4.255177   3.784436   2.161562   3.044539
    18  H    3.439139   4.925928   4.340950   2.160730   2.389167
    19  C    3.577436   4.695398   3.556687   3.658667   4.695749
    20  H    3.926421   5.337041   4.048578   3.570893   4.556692
    21  C    4.108056   5.155240   3.681847   4.421907   5.332992
    22  H    4.858571   6.112714   4.376602   4.958485   5.778141
    23  C    3.718839   3.570893   3.691498   4.581772   5.593521
    24  H    3.589319   2.900423   3.736243   4.601451   5.549387
    25  H    4.806947   4.556692   4.772815   5.593521   6.632795
    26  C    3.704098   3.652869   3.235746   4.758911   5.639621
    27  H    4.628207   4.199475   4.111794   5.786701   6.629269
    28  H    2.962409   2.832485   2.378631   4.208498   4.961377
                   11         12         13         14         15
    11  H    0.000000
    12  C    3.839209   0.000000
    13  H    4.920085   1.083448   0.000000
    14  C    3.438417   1.331940   2.100558   0.000000
    15  H    4.346484   2.100763   2.431463   1.083827   0.000000
    16  C    2.160806   2.469467   3.463199   1.504233   2.234298
    17  H    2.384568   2.992688   3.938315   2.120853   2.709500
    18  H    2.591620   3.316042   4.212192   2.145131   2.466647
    19  C    3.144033   4.900698   5.794914   4.787605   5.612597
    20  H    2.900423   5.155240   6.112714   4.758677   5.487687
    21  C    3.782809   5.861961   6.741836   5.938157   6.856695
    22  H    4.135887   6.741836   7.673972   6.699781   7.601256
    23  C    4.601451   4.421907   4.958485   4.898426   5.709374
    24  H    4.871936   3.782809   4.135887   4.460903   5.217484
    25  H    5.549387   5.332992   5.778141   5.757603   6.469479
    26  C    4.657338   5.057176   5.651830   5.664254   6.614084
    27  H    5.727978   5.817517   6.273811   6.550667   7.471291
    28  H    4.250789   4.484708   5.081544   5.219575   6.228345
                   16         17         18         19         20
    16  C    0.000000
    17  H    1.096889   0.000000
    18  H    1.091447   1.748099   0.000000
    19  C    3.914059   3.176202   4.674827   0.000000
    20  H    3.652869   2.832485   4.199475   1.083666   0.000000
    21  C    5.057176   4.484708   5.817517   1.464083   2.201544
    22  H    5.651830   5.081544   6.273811   2.200677   2.514289
    23  C    4.758911   4.208498   5.786701   2.467704   3.462231
    24  H    4.657338   4.250789   5.727978   3.310895   4.206831
    25  H    5.639621   4.961377   6.629269   2.987645   3.933897
    26  C    5.383680   5.017602   6.399929   2.855038   3.923080
    27  H    6.399929   6.040694   7.437519   3.844923   4.925928
    28  H    5.017602   4.875960   6.040694   3.283036   4.255177
                   21         22         23         24         25
    21  C    0.000000
    22  H    1.083448   0.000000
    23  C    2.850324   3.918503   0.000000
    24  H    3.839209   4.920085   1.091259   0.000000
    25  H    3.276807   4.249117   1.098100   1.751903   0.000000
    26  C    2.469467   3.463199   1.530061   2.160806   2.164177
    27  H    3.316042   4.212192   2.160730   2.591620   2.389167
    28  H    2.992688   3.938315   2.161562   2.384568   3.044539
                   26         27         28
    26  C    0.000000
    27  H    1.091447   0.000000
    28  H    1.096889   1.748099   0.000000
 Symmetry turned off by external request.
 Stoichiometry    C12H16
 Framework group  CI[X(C12H16)]
 Deg. of freedom    39
 Full point group                 CI      NOp   2
 Rotational constants (GHZ):           1.6459081           0.5667964           0.5259422
 Leave Link  202 at Mon Aug  3 13:42:11 2020, MaxMem=  6442450944 cpu:               0.3 elap:               0.1
 (Enter /scratch/scicomp/CentOS/7.3.1611/Haswell/software/Gaussian/g16/l301.exe)
 Standard basis: def2TZVP (6D, 10F)
 Ernie: Thresh=  0.10000D-02 Tol=  0.10000D-05 Strict=F.
   528 basis functions,   740 primitive gaussians,   528 cartesian basis functions
    44 alpha electrons       44 beta electrons
       nuclear repulsion energy       667.2678745036 Hartrees.
 IExCor= 4639 DFT=T Ex+Corr=wB97XD ExCW=0 ScaHFX=  1.000000
 ScaDFX=  1.000000  1.000000  1.000000  1.000000 ScalE2=  1.000000  1.000000
 IRadAn=      5 IRanWt=     -1 IRanGd=            0 ICorTp=0 IEmpDi=121
 HFx  wShort=  0.000000 wLong=  0.200000 cFull=  0.222036 cShort=  0.000000 cLong=  0.777964
 DFx  wShort=  0.000000 wLong=  0.200000 cFull=  0.000000 cShort=  0.000000 cLong=  1.000000
 NAtoms=   28 NActive=   28 NUniq=   28 SFac= 1.00D+00 NAtFMM=   60 NAOKFM=F Big=F
 Integral buffers will be    131072 words long.
 Raffenetti 2 integral format.
 Two-electron integral symmetry is turned off.
 R6Disp:  Grimme-D2 Dispersion energy=       -0.0205653165 Hartrees.
 Nuclear repulsion after empirical dispersion term =      667.2473091871 Hartrees.
 Using the following non-standard input for PCM:
 norep pcmdoc geomview  nodis nocav g03defaults tsare=0.075
 Warning! Using old PCM defaults because the g03defaults keyword was found.
 These settings can be overridden by following keywords.
 nsfe=28
 NVESolv=36  SolvMW=84.1595   Rsolv=2.815
 eps=2.0165 RhoS=0.7781
 --- end of non-standard input.
 Reading user-defined spheres from input:
 ISph  on   Nord    Re0     Alpha      Xe            Ye            Ze
 --- end of user-defined spheres data.
 ------------------------------------------------------------------------------
 Polarizable Continuum Model (PCM)
 =================================
 Model                : PCM.
 Atomic radii         : UA0 (Simple United Atom Topological Model).
 Polarization charges : Total charges.
 Charge compensation  : None.
 Solution method      : On-the-fly selection.
 Cavity type          : SES (Solvent Excluding Surface) (Alpha=1.000).
 Cavity algorithm     : GePol (RMin=0.200 OFac=0.890).
                        User-defined sphere list used, NSphG=   28.
                        Tesserae with average area of 0.075 Ang**2.
                        Smoothing algorithm: None.
                        Polarization charges: point-like.
                        Self-potential: constant (ISelfS= 1).
                        Self-field    : global E.n sum rule (ISelfD= 3).
 Solvent              : CycloHexane, Eps=   2.016500 Eps(inf)=   2.035188
                        RSolv=   2.815000 Ang.
 ------------------------------------------------------------------------------
 GePol: Number of generator spheres                  =      28
 GePol: Total number of spheres                      =     192
 GePol: Number of exposed spheres                    =     131 ( 68.23%)
 GePol: Number of tesserae                           =    4729
 GePol: Average area of tesserae                     =       0.05 Ang**2
 GePol: Minimum area of tessera                      =   0.10D-02 Ang**2
 GePol: Maximum area of tessera                      =    0.13097 Ang**2
 GePol: Number of small tesserae                     =       0
 GePol: Fraction of small tesserae (<1% of avg)      =       0.00%
 GePol: Total count of vertices                      =   16707
 GePol: Maximum number of vertices in a tessera      =       7
 GePol: Cavity surface area                          =    226.111 Ang**2
 GePol: Cavity volume                                =    259.618 Ang**3
 Leave Link  301 at Mon Aug  3 13:42:12 2020, MaxMem=  6442450944 cpu:               8.5 elap:               0.4
 (Enter /scratch/scicomp/CentOS/7.3.1611/Haswell/software/Gaussian/g16/l302.exe)
 NPDir=0 NMtPBC=     1 NCelOv=     1 NCel=       1 NClECP=     1 NCelD=      1
         NCelK=      1 NCelE2=     1 NClLst=     1 CellRange=     0.0.
 One-electron integrals computed using PRISM.
   1 Symmetry operations used in ECPInt.
 ECPInt:  NShTT=   19306 NPrTT=   56928 LenC2=   18448 LenP2D=   41592.
 LDataN:  DoStor=T MaxTD1= 6 Len=  172
 NBasis=   528 RedAO= T EigKep=  2.10D-05  NBF=   528
 NBsUse=   528 1.00D-06 EigRej= -1.00D+00 NBFU=   528
 Precomputing XC quadrature grid using
 IXCGrd= 4 IRadAn=           5 IRanWt=          -1 IRanGd=           0 AccXCQ= 0.00D+00.
 Generated NRdTot=       0 NPtTot=           0 NUsed=           0 NTot=          32
 NSgBfM=   526   526   526   526   526 MxSgAt=    28 MxSgA2=    28.
 Leave Link  302 at Mon Aug  3 13:42:12 2020, MaxMem=  6442450944 cpu:              13.1 elap:               0.6
 (Enter /scratch/scicomp/CentOS/7.3.1611/Haswell/software/Gaussian/g16/l303.exe)
 DipDrv:  MaxL=1.
 Leave Link  303 at Mon Aug  3 13:42:13 2020, MaxMem=  6442450944 cpu:               1.5 elap:               0.1
 (Enter /scratch/scicomp/CentOS/7.3.1611/Haswell/software/Gaussian/g16/l401.exe)
 ExpMin= 9.52D-02 ExpMax= 1.36D+04 ExpMxC= 4.63D+02 IAcc=3 IRadAn=         5 AccDes= 0.00D+00
 Harris functional with IExCor= 4639 and IRadAn=       5 diagonalized for initial guess.
 HarFok:  IExCor= 4639 AccDes= 0.00D+00 IRadAn=         5 IDoV= 1 UseB2=F ITyADJ=14
 ICtDFT=  3500011 ScaDFX=  1.000000  1.000000  1.000000  1.000000
 FoFCou: FMM=F IPFlag=           0 FMFlag=      100000 FMFlg1=           0
         NFxFlg=           0 DoJE=T BraDBF=F KetDBF=T FulRan=T
         wScrn=  0.000000 ICntrl=       500 IOpCl=  0 I1Cent=   200000004 NGrid=           0
         NMat0=    1 NMatS0=      1 NMatT0=    0 NMatD0=    1 NMtDS0=    0 NMtDT0=    0
 Symmetry not used in FoFCou.
 Harris En= -444.661477549730    
 JPrj=0 DoOrth=F DoCkMO=T.
 Mixing orbitals, IMix= 1 IMixAn=  0 NRI=1 NE=   44 Coef=  7.07106781D-01  7.07106781D-01
 Mixing orbitals, IMix= 1 IMixAn=  0 NRI=1 NE=   44 Coef= -7.07106781D-01  7.07106781D-01
 Initial guess <Sx>= 0.0000 <Sy>= 0.0000 <Sz>= 0.0000 <S**2>= 1.0000 S= 0.6180
 Leave Link  401 at Mon Aug  3 13:42:15 2020, MaxMem=  6442450944 cpu:              48.4 elap:               2.1
 (Enter /scratch/scicomp/CentOS/7.3.1611/Haswell/software/Gaussian/g16/l502.exe)
 Two-electron integral symmetry not used.
 UHF open shell SCF:
 Using DIIS extrapolation, IDIIS=  1040.
 NGot=  6442450944 LenX=  6441877030 LenY=  6441597718
 Requested convergence on RMS density matrix=1.00D-08 within 128 cycles.
 Requested convergence on MAX density matrix=1.00D-06.
 Requested convergence on             energy=1.00D-06.
 No special actions if energy rises.
 Fock matrices will be formed incrementally for  20 cycles.

 Cycle   1  Pass 1  IDiag  1:
 FoFJK:  IHMeth= 1 ICntrl=       0 DoSepK=T KAlg= 0 I1Cent=           0 FoldK=F
 IRaf=         1 NMat=       1 IRICut=       1 DoRegI=T DoRafI=F ISym2E= 0 IDoP0=0 IntGTp=1.
 FoFCou: FMM=F IPFlag=           0 FMFlag=      100000 FMFlg1=           0
         NFxFlg=           0 DoJE=T BraDBF=F KetDBF=F FulRan=T
         wScrn=  0.000000 ICntrl=       500 IOpCl=  0 I1Cent=           0 NGrid=           0
         NMat0=    1 NMatS0=      1 NMatT0=    0 NMatD0=    1 NMtDS0=    0 NMtDT0=    0
 Symmetry not used in FoFCou.
 Inv3:  Mode=1 IEnd=    67090323.
 Iteration    1 A*A^-1 deviation from unit magnitude is 4.66D-15 for   1127.
 Iteration    1 A*A^-1 deviation from orthogonality  is 2.51D-15 for   2580   2547.
 Iteration    1 A^-1*A deviation from unit magnitude is 4.00D-15 for   1127.
 Iteration    1 A^-1*A deviation from orthogonality  is 2.88D-15 for   2580   2547.
 E= -466.571178714166    
 DIIS: error= 5.35D-02 at cycle   1 NSaved=   1.
 NSaved= 1 IEnMin= 1 EnMin= -466.571178714166     IErMin= 1 ErrMin= 5.35D-02
 ErrMax= 5.35D-02  0.00D+00 EMaxC= 1.00D-01 BMatC= 4.12D+00 BMatP= 4.12D+00
 IDIUse=3 WtCom= 4.65D-01 WtEn= 5.35D-01
 Coeff-Com:  0.100D+01
 Coeff-En:   0.100D+01
 Coeff:      0.100D+01
 Gap=     0.178 Goal=   None    Shift=    0.000
 Gap=     0.178 Goal=   None    Shift=    0.000
 GapD=    0.178 DampG=1.000 DampE=0.500 DampFc=0.5000 IDamp=-1.
 Damping current iteration by 5.00D-01
 RMSDP=1.66D-03 MaxDP=9.34D-02              OVMax= 3.69D-01

 Cycle   2  Pass 1  IDiag  1:
 RMSU=  7.93D-04    CP:  9.60D-01
 E= -466.687842544521     Delta-E=       -0.116663830355 Rises=F Damp=T
 DIIS: error= 2.55D-02 at cycle   2 NSaved=   2.
 NSaved= 2 IEnMin= 2 EnMin= -466.687842544521     IErMin= 2 ErrMin= 2.55D-02
 ErrMax= 2.55D-02  0.00D+00 EMaxC= 1.00D-01 BMatC= 9.38D-01 BMatP= 4.12D+00
 IDIUse=3 WtCom= 7.45D-01 WtEn= 2.55D-01
 Coeff-Com: -0.868D+00 0.187D+01
 Coeff-En:   0.000D+00 0.100D+01
 Coeff:     -0.647D+00 0.165D+01
 Gap=     0.286 Goal=   None    Shift=    0.000
 Gap=     0.286 Goal=   None    Shift=    0.000
 RMSDP=1.20D-03 MaxDP=4.89D-02 DE=-1.17D-01 OVMax= 1.39D-01

 Cycle   3  Pass 1  IDiag  1:
 RMSU=  6.10D-04    CP:  9.00D-01  2.20D+00
 E= -466.840996136932     Delta-E=       -0.153153592411 Rises=F Damp=F
 DIIS: error= 7.81D-03 at cycle   3 NSaved=   3.
 NSaved= 3 IEnMin= 3 EnMin= -466.840996136932     IErMin= 3 ErrMin= 7.81D-03
 ErrMax= 7.81D-03  0.00D+00 EMaxC= 1.00D-01 BMatC= 2.38D-02 BMatP= 9.38D-01
 IDIUse=3 WtCom= 9.22D-01 WtEn= 7.81D-02
 Coeff-Com: -0.310D+00 0.666D+00 0.645D+00
 Coeff-En:   0.000D+00 0.000D+00 0.100D+01
 Coeff:     -0.286D+00 0.613D+00 0.673D+00
 Gap=     0.309 Goal=   None    Shift=    0.000
 Gap=     0.309 Goal=   None    Shift=    0.000
 RMSDP=2.04D-04 MaxDP=9.51D-03 DE=-1.53D-01 OVMax= 6.35D-02

 Cycle   4  Pass 1  IDiag  1:
 RMSU=  1.84D-04    CP:  8.93D-01  2.30D+00  1.01D+00
 E= -466.851584076116     Delta-E=       -0.010587939184 Rises=F Damp=F
 DIIS: error= 5.04D-03 at cycle   4 NSaved=   4.
 NSaved= 4 IEnMin= 4 EnMin= -466.851584076116     IErMin= 4 ErrMin= 5.04D-03
 ErrMax= 5.04D-03  0.00D+00 EMaxC= 1.00D-01 BMatC= 2.00D-03 BMatP= 2.38D-02
 IDIUse=3 WtCom= 9.50D-01 WtEn= 5.04D-02
 Coeff-Com:  0.151D+00-0.323D+00-0.823D-01 0.125D+01
 Coeff-En:   0.000D+00 0.000D+00 0.000D+00 0.100D+01
 Coeff:      0.143D+00-0.307D+00-0.782D-01 0.124D+01
 Gap=     0.320 Goal=   None    Shift=    0.000
 Gap=     0.320 Goal=   None    Shift=    0.000
 RMSDP=2.06D-04 MaxDP=1.09D-02 DE=-1.06D-02 OVMax= 7.52D-02

 Cycle   5  Pass 1  IDiag  1:
 RMSU=  8.01D-05    CP:  8.86D-01  2.36D+00  1.23D+00  1.63D+00
 E= -466.856060655268     Delta-E=       -0.004476579152 Rises=F Damp=F
 DIIS: error= 2.14D-03 at cycle   5 NSaved=   5.
 NSaved= 5 IEnMin= 5 EnMin= -466.856060655268     IErMin= 5 ErrMin= 2.14D-03
 ErrMax= 2.14D-03  0.00D+00 EMaxC= 1.00D-01 BMatC= 7.39D-04 BMatP= 2.00D-03
 IDIUse=3 WtCom= 9.79D-01 WtEn= 2.14D-02
 Coeff-Com:  0.462D-01-0.992D-01-0.539D-01 0.246D+00 0.861D+00
 Coeff-En:   0.000D+00 0.000D+00 0.000D+00 0.000D+00 0.100D+01
 Coeff:      0.452D-01-0.971D-01-0.528D-01 0.241D+00 0.864D+00
 Gap=     0.321 Goal=   None    Shift=    0.000
 Gap=     0.321 Goal=   None    Shift=    0.000
 RMSDP=6.91D-05 MaxDP=2.70D-03 DE=-4.48D-03 OVMax= 2.64D-02

 Cycle   6  Pass 1  IDiag  1:
 RMSU=  3.03D-05    CP:  8.85D-01  2.36D+00  1.26D+00  1.88D+00  1.43D+00
 E= -466.857365067224     Delta-E=       -0.001304411956 Rises=F Damp=F
 DIIS: error= 1.46D-03 at cycle   6 NSaved=   6.
 NSaved= 6 IEnMin= 6 EnMin= -466.857365067224     IErMin= 6 ErrMin= 1.46D-03
 ErrMax= 1.46D-03  0.00D+00 EMaxC= 1.00D-01 BMatC= 4.97D-04 BMatP= 7.39D-04
 IDIUse=3 WtCom= 9.85D-01 WtEn= 1.46D-02
 Coeff-Com: -0.851D-01 0.183D+00 0.565D-01-0.647D+00 0.130D+00 0.136D+01
 Coeff-En:   0.000D+00 0.000D+00 0.000D+00 0.000D+00 0.000D+00 0.100D+01
 Coeff:     -0.839D-01 0.180D+00 0.557D-01-0.638D+00 0.128D+00 0.136D+01
 Gap=     0.318 Goal=   None    Shift=    0.000
 Gap=     0.318 Goal=   None    Shift=    0.000
 RMSDP=9.39D-05 MaxDP=3.86D-03 DE=-1.30D-03 OVMax= 3.60D-02

 Cycle   7  Pass 1  IDiag  1:
 RMSU=  2.92D-05    CP:  8.83D-01  2.37D+00  1.30D+00  2.15D+00  2.14D+00
                    CP:  2.34D+00
 E= -466.858916086280     Delta-E=       -0.001551019057 Rises=F Damp=F
 DIIS: error= 1.05D-03 at cycle   7 NSaved=   7.
 NSaved= 7 IEnMin= 7 EnMin= -466.858916086280     IErMin= 7 ErrMin= 1.05D-03
 ErrMax= 1.05D-03  0.00D+00 EMaxC= 1.00D-01 BMatC= 2.45D-04 BMatP= 4.97D-04
 IDIUse=3 WtCom= 9.89D-01 WtEn= 1.05D-02
 Coeff-Com: -0.250D-01 0.542D-01 0.411D-01-0.140D-01-0.822D+00-0.245D+00
 Coeff-Com:  0.201D+01
 Coeff-En:   0.000D+00 0.000D+00 0.000D+00 0.000D+00 0.000D+00 0.000D+00
 Coeff-En:   0.100D+01
 Coeff:     -0.247D-01 0.536D-01 0.407D-01-0.138D-01-0.813D+00-0.243D+00
 Coeff:      0.200D+01
 Gap=     0.318 Goal=   None    Shift=    0.000
 Gap=     0.318 Goal=   None    Shift=    0.000
 RMSDP=1.27D-04 MaxDP=5.93D-03 DE=-1.55D-03 OVMax= 4.78D-02

 Cycle   8  Pass 1  IDiag  1:
 RMSU=  5.73D-05    CP:  8.81D-01  2.37D+00  1.33D+00  2.44D+00  3.00D+00
                    CP:  3.00D+00  2.57D+00
 E= -466.860177656733     Delta-E=       -0.001261570453 Rises=F Damp=F
 DIIS: error= 3.60D-04 at cycle   8 NSaved=   8.
 NSaved= 8 IEnMin= 8 EnMin= -466.860177656733     IErMin= 8 ErrMin= 3.60D-04
 ErrMax= 3.60D-04  0.00D+00 EMaxC= 1.00D-01 BMatC= 5.22D-05 BMatP= 2.45D-04
 IDIUse=3 WtCom= 9.96D-01 WtEn= 3.60D-03
 Coeff-Com:  0.233D-01-0.500D-01-0.598D-02 0.249D+00-0.273D+00-0.581D+00
 Coeff-Com:  0.549D+00 0.109D+01
 Coeff-En:   0.000D+00 0.000D+00 0.000D+00 0.000D+00 0.000D+00 0.000D+00
 Coeff-En:   0.000D+00 0.100D+01
 Coeff:      0.232D-01-0.498D-01-0.596D-02 0.248D+00-0.272D+00-0.579D+00
 Coeff:      0.547D+00 0.109D+01
 Gap=     0.320 Goal=   None    Shift=    0.000
 Gap=     0.320 Goal=   None    Shift=    0.000
 RMSDP=5.33D-05 MaxDP=2.56D-03 DE=-1.26D-03 OVMax= 1.97D-02

 Cycle   9  Pass 1  IDiag  1:
 RMSU=  2.94D-05    CP:  8.80D-01  2.37D+00  1.35D+00  2.53D+00  3.00D+00
                    CP:  3.00D+00  3.00D+00  1.60D+00
 E= -466.860364295963     Delta-E=       -0.000186639230 Rises=F Damp=F
 DIIS: error= 1.06D-04 at cycle   9 NSaved=   9.
 NSaved= 9 IEnMin= 9 EnMin= -466.860364295963     IErMin= 9 ErrMin= 1.06D-04
 ErrMax= 1.06D-04  0.00D+00 EMaxC= 1.00D-01 BMatC= 7.32D-06 BMatP= 5.22D-05
 IDIUse=3 WtCom= 9.99D-01 WtEn= 1.06D-03
 Coeff-Com:  0.111D-01-0.239D-01-0.765D-02 0.774D-01 0.389D-01-0.135D+00
 Coeff-Com: -0.133D+00 0.269D+00 0.903D+00
 Coeff-En:   0.000D+00 0.000D+00 0.000D+00 0.000D+00 0.000D+00 0.000D+00
 Coeff-En:   0.000D+00 0.000D+00 0.100D+01
 Coeff:      0.111D-01-0.239D-01-0.764D-02 0.773D-01 0.389D-01-0.135D+00
 Coeff:     -0.133D+00 0.269D+00 0.903D+00
 Gap=     0.319 Goal=   None    Shift=    0.000
 Gap=     0.319 Goal=   None    Shift=    0.000
 RMSDP=1.28D-05 MaxDP=5.98D-04 DE=-1.87D-04 OVMax= 4.69D-03

 Cycle  10  Pass 1  IDiag  1:
 RMSU=  5.00D-06    CP:  8.80D-01  2.37D+00  1.35D+00  2.55D+00  3.00D+00
                    CP:  3.00D+00  3.00D+00  1.73D+00  1.27D+00
 E= -466.860376943174     Delta-E=       -0.000012647210 Rises=F Damp=F
 DIIS: error= 4.40D-05 at cycle  10 NSaved=  10.
 NSaved=10 IEnMin=10 EnMin= -466.860376943174     IErMin=10 ErrMin= 4.40D-05
 ErrMax= 4.40D-05  0.00D+00 EMaxC= 1.00D-01 BMatC= 1.04D-06 BMatP= 7.32D-06
 IDIUse=1 WtCom= 1.00D+00 WtEn= 0.00D+00
 Coeff-Com: -0.216D-02 0.467D-02-0.126D-03-0.319D-01 0.462D-01 0.798D-01
 Coeff-Com: -0.988D-01-0.185D+00 0.138D+00 0.105D+01
 Coeff:     -0.216D-02 0.467D-02-0.126D-03-0.319D-01 0.462D-01 0.798D-01
 Coeff:     -0.988D-01-0.185D+00 0.138D+00 0.105D+01
 Gap=     0.319 Goal=   None    Shift=    0.000
 Gap=     0.319 Goal=   None    Shift=    0.000
 RMSDP=5.48D-06 MaxDP=2.40D-04 DE=-1.26D-05 OVMax= 1.96D-03

 Cycle  11  Pass 1  IDiag  1:
 RMSU=  1.84D-06    CP:  8.80D-01  2.37D+00  1.35D+00  2.56D+00  3.00D+00
                    CP:  3.00D+00  3.00D+00  1.77D+00  1.38D+00  1.40D+00
 E= -466.860378444873     Delta-E=       -0.000001501700 Rises=F Damp=F
 DIIS: error= 1.48D-05 at cycle  11 NSaved=  11.
 NSaved=11 IEnMin=11 EnMin= -466.860378444873     IErMin=11 ErrMin= 1.48D-05
 ErrMax= 1.48D-05  0.00D+00 EMaxC= 1.00D-01 BMatC= 1.63D-07 BMatP= 1.04D-06
 IDIUse=1 WtCom= 1.00D+00 WtEn= 0.00D+00
 Coeff-Com: -0.101D-02 0.218D-02 0.191D-03-0.118D-01 0.113D-01 0.271D-01
 Coeff-Com: -0.192D-01-0.653D-01-0.919D-02 0.297D+00 0.769D+00
 Coeff:     -0.101D-02 0.218D-02 0.191D-03-0.118D-01 0.113D-01 0.271D-01
 Coeff:     -0.192D-01-0.653D-01-0.919D-02 0.297D+00 0.769D+00
 Gap=     0.319 Goal=   None    Shift=    0.000
 Gap=     0.319 Goal=   None    Shift=    0.000
 RMSDP=6.83D-07 MaxDP=3.36D-05 DE=-1.50D-06 OVMax= 1.34D-04

 Cycle  12  Pass 1  IDiag  1:
 RMSU=  5.53D-07    CP:  8.80D-01  2.37D+00  1.35D+00  2.56D+00  3.00D+00
                    CP:  3.00D+00  3.00D+00  1.77D+00  1.38D+00  1.41D+00
                    CP:  1.17D+00
 E= -466.860378544640     Delta-E=       -0.000000099766 Rises=F Damp=F
 DIIS: error= 1.05D-05 at cycle  12 NSaved=  12.
 NSaved=12 IEnMin=12 EnMin= -466.860378544640     IErMin=12 ErrMin= 1.05D-05
 ErrMax= 1.05D-05  0.00D+00 EMaxC= 1.00D-01 BMatC= 5.98D-08 BMatP= 1.63D-07
 IDIUse=1 WtCom= 1.00D+00 WtEn= 0.00D+00
 Coeff-Com:  0.410D-03-0.888D-03-0.688D-05 0.635D-02-0.895D-02-0.161D-01
 Coeff-Com:  0.223D-01 0.360D-01-0.420D-01-0.235D+00 0.283D+00 0.955D+00
 Coeff:      0.410D-03-0.888D-03-0.688D-05 0.635D-02-0.895D-02-0.161D-01
 Coeff:      0.223D-01 0.360D-01-0.420D-01-0.235D+00 0.283D+00 0.955D+00
 Gap=     0.319 Goal=   None    Shift=    0.000
 Gap=     0.319 Goal=   None    Shift=    0.000
 RMSDP=5.68D-07 MaxDP=2.38D-05 DE=-9.98D-08 OVMax= 1.26D-04

 Cycle  13  Pass 1  IDiag  1:
 RMSU=  3.31D-07    CP:  8.80D-01  2.37D+00  1.35D+00  2.56D+00  3.00D+00
                    CP:  3.00D+00  3.00D+00  1.76D+00  1.38D+00  1.41D+00
                    CP:  1.33D+00  1.57D+00
 E= -466.860378605350     Delta-E=       -0.000000060710 Rises=F Damp=F
 DIIS: error= 5.92D-06 at cycle  13 NSaved=  13.
 NSaved=13 IEnMin=13 EnMin= -466.860378605350     IErMin=13 ErrMin= 5.92D-06
 ErrMax= 5.92D-06  0.00D+00 EMaxC= 1.00D-01 BMatC= 1.15D-08 BMatP= 5.98D-08
 IDIUse=1 WtCom= 1.00D+00 WtEn= 0.00D+00
 Coeff-Com: -0.391D-04 0.864D-04 0.560D-04-0.326D-03 0.330D-03 0.358D-03
 Coeff-Com: -0.155D-02 0.128D-02 0.480D-02-0.521D-02-0.191D+00-0.143D+00
 Coeff-Com:  0.133D+01
 Coeff:     -0.391D-04 0.864D-04 0.560D-04-0.326D-03 0.330D-03 0.358D-03
 Coeff:     -0.155D-02 0.128D-02 0.480D-02-0.521D-02-0.191D+00-0.143D+00
 Coeff:      0.133D+01
 Gap=     0.319 Goal=   None    Shift=    0.000
 Gap=     0.319 Goal=   None    Shift=    0.000
 RMSDP=3.32D-07 MaxDP=1.80D-05 DE=-6.07D-08 OVMax= 8.38D-05

 Cycle  14  Pass 1  IDiag  1:
 RMSU=  2.21D-07    CP:  8.80D-01  2.37D+00  1.35D+00  2.56D+00  3.00D+00
                    CP:  3.00D+00  3.00D+00  1.76D+00  1.38D+00  1.42D+00
                    CP:  1.38D+00  1.84D+00  1.49D+00
 E= -466.860378628920     Delta-E=       -0.000000023570 Rises=F Damp=F
 DIIS: error= 3.24D-06 at cycle  14 NSaved=  14.
 NSaved=14 IEnMin=14 EnMin= -466.860378628920     IErMin=14 ErrMin= 3.24D-06
 ErrMax= 3.24D-06  0.00D+00 EMaxC= 1.00D-01 BMatC= 3.51D-09 BMatP= 1.15D-08
 IDIUse=1 WtCom= 1.00D+00 WtEn= 0.00D+00
 Coeff-Com: -0.151D-03 0.325D-03 0.499D-04-0.193D-02 0.227D-02 0.459D-02
 Coeff-Com: -0.619D-02-0.978D-02 0.128D-01 0.680D-01-0.112D+00-0.309D+00
 Coeff-Com:  0.109D+00 0.124D+01
 Coeff:     -0.151D-03 0.325D-03 0.499D-04-0.193D-02 0.227D-02 0.459D-02
 Coeff:     -0.619D-02-0.978D-02 0.128D-01 0.680D-01-0.112D+00-0.309D+00
 Coeff:      0.109D+00 0.124D+01
 Gap=     0.319 Goal=   None    Shift=    0.000
 Gap=     0.319 Goal=   None    Shift=    0.000
 RMSDP=2.39D-07 MaxDP=1.14D-05 DE=-2.36D-08 OVMax= 6.13D-05

 Cycle  15  Pass 1  IDiag  1:
 RMSU=  8.06D-08    CP:  8.80D-01  2.37D+00  1.35D+00  2.56D+00  3.00D+00
                    CP:  3.00D+00  3.00D+00  1.76D+00  1.38D+00  1.42D+00
                    CP:  1.39D+00  1.96D+00  1.83D+00  1.81D+00
 E= -466.860378636716     Delta-E=       -0.000000007797 Rises=F Damp=F
 DIIS: error= 1.18D-06 at cycle  15 NSaved=  15.
 NSaved=15 IEnMin=15 EnMin= -466.860378636716     IErMin=15 ErrMin= 1.18D-06
 ErrMax= 1.18D-06  0.00D+00 EMaxC= 1.00D-01 BMatC= 5.92D-10 BMatP= 3.51D-09
 IDIUse=1 WtCom= 1.00D+00 WtEn= 0.00D+00
 Coeff-Com:  0.101D-04-0.222D-04-0.231D-04 0.187D-05 0.160D-03 0.198D-03
 Coeff-Com: -0.541D-03-0.870D-03 0.177D-02 0.991D-02 0.277D-01-0.179D-01
 Coeff-Com: -0.326D+00 0.217D+00 0.109D+01
 Coeff:      0.101D-04-0.222D-04-0.231D-04 0.187D-05 0.160D-03 0.198D-03
 Coeff:     -0.541D-03-0.870D-03 0.177D-02 0.991D-02 0.277D-01-0.179D-01
 Coeff:     -0.326D+00 0.217D+00 0.109D+01
 Gap=     0.319 Goal=   None    Shift=    0.000
 Gap=     0.319 Goal=   None    Shift=    0.000
 RMSDP=1.13D-07 MaxDP=5.15D-06 DE=-7.80D-09 OVMax= 2.72D-05

 Cycle  16  Pass 1  IDiag  1:
 RMSU=  3.84D-08    CP:  8.80D-01  2.37D+00  1.35D+00  2.56D+00  3.00D+00
                    CP:  3.00D+00  3.00D+00  1.76D+00  1.38D+00  1.43D+00
                    CP:  1.38D+00  1.99D+00  1.96D+00  2.18D+00  1.47D+00
 E= -466.860378637765     Delta-E=       -0.000000001049 Rises=F Damp=F
 DIIS: error= 2.25D-07 at cycle  16 NSaved=  16.
 NSaved=16 IEnMin=16 EnMin= -466.860378637765     IErMin=16 ErrMin= 2.25D-07
 ErrMax= 2.25D-07  0.00D+00 EMaxC= 1.00D-01 BMatC= 5.20D-11 BMatP= 5.92D-10
 IDIUse=1 WtCom= 1.00D+00 WtEn= 0.00D+00
 Coeff-Com:  0.773D-05-0.167D-04-0.748D-05 0.924D-04-0.858D-04-0.169D-03
 Coeff-Com:  0.217D-03 0.363D-03-0.641D-03-0.249D-02 0.159D-01 0.193D-01
 Coeff-Com: -0.819D-01-0.562D-01 0.247D+00 0.859D+00
 Coeff:      0.773D-05-0.167D-04-0.748D-05 0.924D-04-0.858D-04-0.169D-03
 Coeff:      0.217D-03 0.363D-03-0.641D-03-0.249D-02 0.159D-01 0.193D-01
 Coeff:     -0.819D-01-0.562D-01 0.247D+00 0.859D+00
 Gap=     0.319 Goal=   None    Shift=    0.000
 Gap=     0.319 Goal=   None    Shift=    0.000
 RMSDP=2.31D-08 MaxDP=8.48D-07 DE=-1.05D-09 OVMax= 3.96D-06

 Cycle  17  Pass 1  IDiag  1:
 RMSU=  1.08D-08    CP:  8.80D-01  2.37D+00  1.35D+00  2.56D+00  3.00D+00
                    CP:  3.00D+00  3.00D+00  1.76D+00  1.38D+00  1.43D+00
                    CP:  1.38D+00  1.99D+00  1.97D+00  2.22D+00  1.58D+00
                    CP:  1.34D+00
 E= -466.860378637794     Delta-E=       -0.000000000029 Rises=F Damp=F
 DIIS: error= 9.38D-08 at cycle  17 NSaved=  17.
 NSaved=17 IEnMin=17 EnMin= -466.860378637794     IErMin=17 ErrMin= 9.38D-08
 ErrMax= 9.38D-08  0.00D+00 EMaxC= 1.00D-01 BMatC= 7.22D-12 BMatP= 5.20D-11
 IDIUse=1 WtCom= 1.00D+00 WtEn= 0.00D+00
 Coeff-Com: -0.140D-06 0.339D-06 0.989D-06 0.542D-05-0.223D-04-0.116D-04
 Coeff-Com:  0.540D-04 0.126D-03-0.349D-03-0.150D-02-0.144D-02 0.466D-02
 Coeff-Com:  0.354D-01-0.399D-01-0.125D+00 0.146D+00 0.981D+00
 Coeff:     -0.140D-06 0.339D-06 0.989D-06 0.542D-05-0.223D-04-0.116D-04
 Coeff:      0.540D-04 0.126D-03-0.349D-03-0.150D-02-0.144D-02 0.466D-02
 Coeff:      0.354D-01-0.399D-01-0.125D+00 0.146D+00 0.981D+00
 Gap=     0.319 Goal=   None    Shift=    0.000
 Gap=     0.319 Goal=   None    Shift=    0.000
 RMSDP=9.17D-09 MaxDP=3.22D-07 DE=-2.93D-11 OVMax= 1.31D-06

 Error on total polarization charges =  0.01174
 SCF Done:  E(UwB97XD) =  -466.860378638     A.U. after   17 cycles
            NFock= 17  Conv=0.92D-08     -V/T= 2.0059
 <Sx>= 0.0000 <Sy>= 0.0000 <Sz>= 0.0000 <S**2>= 0.0000 S= 0.0000
 <L.S>=  0.00000000000    
 KE= 4.641357251902D+02 PE=-2.416230750564D+03 EE= 8.179873375484D+02
 --------------------------------------------------------------------
 Variational PCM results
 =======================
 <psi(f)|   H    |psi(f)>                     (a.u.) =    -466.858888
 <psi(f)|H+V(f)/2|psi(f)>                     (a.u.) =    -466.860379
 (Polarized solute)-Solvent               (kcal/mol) =      -0.94
 --------------------------------------------------------------------
 Partition over spheres:
 Sphere  on Atom  Surface  Charge   GEl     GCav    GDR
    1      C1       6.88   0.010   -0.05    0.00    0.00
    2      C2       4.72   0.007   -0.04    0.00    0.00
    3      H3       7.52  -0.010   -0.04    0.00    0.00
    4      H4       3.81  -0.006   -0.02    0.00    0.00
    5      C5       4.48   0.007   -0.05    0.00    0.00
    6      C6       4.27   0.005   -0.03    0.00    0.00
    7      H7       5.85  -0.008   -0.03    0.00    0.00
    8      H8       4.53  -0.006   -0.02    0.00    0.00
    9      C9       3.59   0.002    0.00    0.00    0.00
   10      H10      7.15  -0.007   -0.01    0.00    0.00
   11      H11      3.37  -0.003   -0.01    0.00    0.00
   12      C12      6.57   0.011   -0.07    0.00    0.00
   13      H13      7.51  -0.010   -0.03    0.00    0.00
   14      C14      7.30   0.011   -0.06    0.00    0.00
   15      H15      7.51  -0.010   -0.04    0.00    0.00
   16      C16      3.61   0.002    0.00    0.00    0.00
   17      H17      2.65  -0.002   -0.00    0.00    0.00
   18      H18      7.34  -0.008   -0.03    0.00    0.00
   19      C19      5.00   0.009   -0.06    0.00    0.00
   20      H20      5.14  -0.007   -0.03    0.00    0.00
   21      C21      6.44   0.010   -0.06    0.00    0.00
   22      H22      7.51  -0.010   -0.03    0.00    0.00
   23      C23      3.60   0.002    0.00    0.00    0.00
   24      H24      3.44  -0.003   -0.01    0.00    0.00
   25      H25      7.15  -0.007   -0.01    0.00    0.00
   26      C26      3.61   0.002    0.00    0.00    0.00
   27      H27      7.45  -0.008   -0.03    0.00    0.00
   28      H28      2.53  -0.002   -0.00    0.00    0.00
 Added spheres:    75.54   0.018   -0.20    0.00    0.00
 --------------------------------------------------------------------
 After PCM corrections, the energy is  -466.860378638     a.u.
 --------------------------------------------------------------------
 Annihilation of the first spin contaminant:
 S**2 before annihilation     0.0000,   after    -0.0000
 Leave Link  502 at Mon Aug  3 13:47:09 2020, MaxMem=  6442450944 cpu:            6989.1 elap:             294.0
 (Enter /scratch/scicomp/CentOS/7.3.1611/Haswell/software/Gaussian/g16/l601.exe)
 Copying SCF densities to generalized density rwf, IOpCl= 1 IROHF=0.

 **********************************************************************

            Population analysis using the SCF Density.

 **********************************************************************

 Alpha  occ. eigenvalues --  -10.28415 -10.28414 -10.28334 -10.28334 -10.28316
 Alpha  occ. eigenvalues --  -10.28315 -10.28248 -10.28248 -10.28022 -10.28022
 Alpha  occ. eigenvalues --  -10.27778 -10.27777  -0.94151  -0.93820  -0.84116
 Alpha  occ. eigenvalues --   -0.84108  -0.83966  -0.83765  -0.71284  -0.71252
 Alpha  occ. eigenvalues --   -0.67973  -0.67944  -0.59787  -0.59653  -0.57508
 Alpha  occ. eigenvalues --   -0.57022  -0.53371  -0.52706  -0.50935  -0.50876
 Alpha  occ. eigenvalues --   -0.50032  -0.49625  -0.47322  -0.47085  -0.45206
 Alpha  occ. eigenvalues --   -0.44971  -0.41236  -0.41117  -0.39646  -0.39303
 Alpha  occ. eigenvalues --   -0.39245  -0.39162  -0.29802  -0.28000
 Alpha virt. eigenvalues --    0.03915   0.04454   0.10531   0.12224   0.13269
 Alpha virt. eigenvalues --    0.14251   0.14518   0.15477   0.15564   0.15952
 Alpha virt. eigenvalues --    0.16882   0.16913   0.17116   0.18227   0.19870
 Alpha virt. eigenvalues --    0.20626   0.21455   0.22499   0.22775   0.23706
 Alpha virt. eigenvalues --    0.24940   0.25679   0.25904   0.26893   0.27636
 Alpha virt. eigenvalues --    0.28060   0.28993   0.29057   0.29650   0.30320
 Alpha virt. eigenvalues --    0.31011   0.31552   0.31652   0.32014   0.32693
 Alpha virt. eigenvalues --    0.32991   0.34219   0.34836   0.35111   0.37182
 Alpha virt. eigenvalues --    0.37397   0.37975   0.39710   0.40818   0.41161
 Alpha virt. eigenvalues --    0.41277   0.42892   0.43722   0.45052   0.45498
 Alpha virt. eigenvalues --    0.45718   0.46216   0.47352   0.47828   0.47980
 Alpha virt. eigenvalues --    0.48413   0.48796   0.49071   0.49592   0.49704
 Alpha virt. eigenvalues --    0.50426   0.50532   0.51037   0.51633   0.52254
 Alpha virt. eigenvalues --    0.52375   0.52972   0.54093   0.54222   0.54908
 Alpha virt. eigenvalues --    0.56879   0.56928   0.57280   0.59079   0.59126
 Alpha virt. eigenvalues --    0.59688   0.61160   0.62302   0.62963   0.64083
 Alpha virt. eigenvalues --    0.64179   0.66189   0.67662   0.68297   0.69355
 Alpha virt. eigenvalues --    0.70297   0.72491   0.72883   0.73414   0.75155
 Alpha virt. eigenvalues --    0.76357   0.78066   0.78236   0.79957   0.81221
 Alpha virt. eigenvalues --    0.81709   0.82194   0.83428   0.86021   0.86061
 Alpha virt. eigenvalues --    0.86317   0.88695   0.90734   0.91034   0.92418
 Alpha virt. eigenvalues --    0.92596   0.95035   0.95839   0.98209   0.98841
 Alpha virt. eigenvalues --    1.00768   1.02668   1.03661   1.03693   1.04047
 Alpha virt. eigenvalues --    1.06355   1.07180   1.08328   1.09737   1.11050
 Alpha virt. eigenvalues --    1.12683   1.12972   1.14109   1.14580   1.15466
 Alpha virt. eigenvalues --    1.15847   1.16037   1.16819   1.18920   1.20135
 Alpha virt. eigenvalues --    1.21247   1.22677   1.22857   1.23466   1.24352
 Alpha virt. eigenvalues --    1.24720   1.25633   1.26473   1.27273   1.28583
 Alpha virt. eigenvalues --    1.28931   1.30085   1.31988   1.32145   1.32871
 Alpha virt. eigenvalues --    1.34510   1.34643   1.35004   1.36844   1.38368
 Alpha virt. eigenvalues --    1.38736   1.39012   1.40318   1.40725   1.41538
 Alpha virt. eigenvalues --    1.41994   1.42309   1.43505   1.44894   1.45387
 Alpha virt. eigenvalues --    1.45503   1.46191   1.46397   1.46884   1.47928
 Alpha virt. eigenvalues --    1.49826   1.50447   1.51866   1.52698   1.55402
 Alpha virt. eigenvalues --    1.55959   1.57126   1.57240   1.58275   1.60293
 Alpha virt. eigenvalues --    1.60767   1.62168   1.62661   1.64583   1.66082
 Alpha virt. eigenvalues --    1.68489   1.69015   1.69507   1.71164   1.74953
 Alpha virt. eigenvalues --    1.75627   1.79506   1.80750   1.81954   1.82704
 Alpha virt. eigenvalues --    1.87027   1.87872   1.88660   1.89215   1.91076
 Alpha virt. eigenvalues --    1.91970   1.95808   2.00042   2.01156   2.01611
 Alpha virt. eigenvalues --    2.03751   2.04590   2.06488   2.07338   2.08855
 Alpha virt. eigenvalues --    2.08873   2.11633   2.12182   2.13190   2.15236
 Alpha virt. eigenvalues --    2.18885   2.19241   2.19951   2.20197   2.22022
 Alpha virt. eigenvalues --    2.22810   2.23035   2.23463   2.24835   2.25873
 Alpha virt. eigenvalues --    2.28514   2.31286   2.37080   2.37853   2.39870
 Alpha virt. eigenvalues --    2.42030   2.45864   2.47254   2.48361   2.49121
 Alpha virt. eigenvalues --    2.49981   2.50021   2.51679   2.53989   2.54882
 Alpha virt. eigenvalues --    2.55100   2.57201   2.57257   2.60026   2.60073
 Alpha virt. eigenvalues --    2.61774   2.63698   2.64246   2.65135   2.66616
 Alpha virt. eigenvalues --    2.67593   2.68851   2.69734   2.72032   2.72194
 Alpha virt. eigenvalues --    2.73119   2.73145   2.74982   2.75831   2.76235
 Alpha virt. eigenvalues --    2.77237   2.77996   2.78725   2.79876   2.80797
 Alpha virt. eigenvalues --    2.81014   2.81571   2.82548   2.83607   2.83843
 Alpha virt. eigenvalues --    2.84855   2.85439   2.86515   2.88673   2.88771
 Alpha virt. eigenvalues --    2.89565   2.89663   2.91963   2.92432   2.92900
 Alpha virt. eigenvalues --    2.93839   2.94538   2.94664   2.95770   2.98695
 Alpha virt. eigenvalues --    3.01211   3.01701   3.02912   3.03510   3.06241
 Alpha virt. eigenvalues --    3.06496   3.07807   3.08347   3.09376   3.10615
 Alpha virt. eigenvalues --    3.11777   3.12010   3.12310   3.13690   3.14624
 Alpha virt. eigenvalues --    3.14824   3.16703   3.17032   3.18273   3.18471
 Alpha virt. eigenvalues --    3.19232   3.19278   3.19827   3.20737   3.20859
 Alpha virt. eigenvalues --    3.21932   3.22337   3.23283   3.23472   3.24055
 Alpha virt. eigenvalues --    3.25281   3.25318   3.27039   3.27952   3.28141
 Alpha virt. eigenvalues --    3.28647   3.29164   3.29592   3.31075   3.31176
 Alpha virt. eigenvalues --    3.32541   3.32951   3.33297   3.33647   3.34297
 Alpha virt. eigenvalues --    3.34549   3.35062   3.35949   3.37879   3.38467
 Alpha virt. eigenvalues --    3.38712   3.38987   3.41462   3.43076   3.43553
 Alpha virt. eigenvalues --    3.44771   3.45752   3.46139   3.46944   3.46998
 Alpha virt. eigenvalues --    3.47710   3.48377   3.49075   3.49270   3.50668
 Alpha virt. eigenvalues --    3.51329   3.51431   3.52641   3.52795   3.53729
 Alpha virt. eigenvalues --    3.54724   3.55521   3.59932   3.60109   3.60507
 Alpha virt. eigenvalues --    3.62824   3.63862   3.64211   3.64412   3.64633
 Alpha virt. eigenvalues --    3.67388   3.68264   3.69384   3.71151   3.71367
 Alpha virt. eigenvalues --    3.73382   3.75589   3.76161   3.77230   3.77531
 Alpha virt. eigenvalues --    3.83513   3.84254   3.84882   3.86031   3.86134
 Alpha virt. eigenvalues --    3.87227   3.88464   3.89495   3.92227   3.93329
 Alpha virt. eigenvalues --    3.93493   3.95130   3.98686   3.98822   4.01201
 Alpha virt. eigenvalues --    4.03511   4.07901   4.09116   4.09469   4.10609
 Alpha virt. eigenvalues --    4.11811   4.12365   4.13033   4.15076   4.18433
 Alpha virt. eigenvalues --    4.19407   4.20267   4.21703   4.22474   4.22657
 Alpha virt. eigenvalues --    4.24407   4.26672   4.30676   4.31089   4.33237
 Alpha virt. eigenvalues --    4.35530   4.36201   4.37018   4.39118   4.39297
 Alpha virt. eigenvalues --    4.43734   4.45068   4.45425   4.46586   4.47324
 Alpha virt. eigenvalues --    4.47940   4.59182   4.60242   4.61075   4.63777
 Alpha virt. eigenvalues --    4.69084   4.69694   4.71513   4.72410   4.74060
 Alpha virt. eigenvalues --    4.74063   4.76049   4.77295   4.78700   4.81180
 Alpha virt. eigenvalues --    4.83232   4.84212   4.88587   4.88967   4.94234
 Alpha virt. eigenvalues --    4.94480   4.94522   4.95878   5.04739   5.07818
 Alpha virt. eigenvalues --    5.08541   5.10081   5.17837   5.18688   5.23070
 Alpha virt. eigenvalues --    5.23824   5.28400   5.31102   5.39458   5.39836
 Alpha virt. eigenvalues --    5.43477   5.44637   5.47544   5.48293   5.65829
 Alpha virt. eigenvalues --    5.69480   5.74335   5.75709   5.90985   5.95512
 Alpha virt. eigenvalues --    7.94045   7.95692   8.00838   8.02277   8.05796
 Alpha virt. eigenvalues --    8.07314   8.10935   8.11252   8.17051   8.17845
 Alpha virt. eigenvalues --    8.33219   8.35388  34.76151  34.77777  34.81007
 Alpha virt. eigenvalues --   34.81865  34.83881  34.86838  34.97323  34.97686
 Alpha virt. eigenvalues --   35.00114  35.00972  35.15087  35.17971
  Beta  occ. eigenvalues --  -10.28415 -10.28414 -10.28334 -10.28334 -10.28316
  Beta  occ. eigenvalues --  -10.28315 -10.28248 -10.28248 -10.28022 -10.28022
  Beta  occ. eigenvalues --  -10.27778 -10.27777  -0.94151  -0.93820  -0.84116
  Beta  occ. eigenvalues --   -0.84108  -0.83966  -0.83765  -0.71284  -0.71252
  Beta  occ. eigenvalues --   -0.67973  -0.67944  -0.59787  -0.59653  -0.57508
  Beta  occ. eigenvalues --   -0.57022  -0.53371  -0.52706  -0.50935  -0.50876
  Beta  occ. eigenvalues --   -0.50032  -0.49625  -0.47322  -0.47085  -0.45206
  Beta  occ. eigenvalues --   -0.44971  -0.41236  -0.41117  -0.39646  -0.39303
  Beta  occ. eigenvalues --   -0.39245  -0.39162  -0.29802  -0.28000
  Beta virt. eigenvalues --    0.03915   0.04454   0.10531   0.12224   0.13269
  Beta virt. eigenvalues --    0.14251   0.14518   0.15477   0.15564   0.15952
  Beta virt. eigenvalues --    0.16882   0.16913   0.17116   0.18227   0.19870
  Beta virt. eigenvalues --    0.20626   0.21455   0.22499   0.22775   0.23706
  Beta virt. eigenvalues --    0.24940   0.25679   0.25904   0.26893   0.27636
  Beta virt. eigenvalues --    0.28060   0.28993   0.29057   0.29650   0.30320
  Beta virt. eigenvalues --    0.31011   0.31552   0.31652   0.32014   0.32693
  Beta virt. eigenvalues --    0.32991   0.34219   0.34836   0.35111   0.37182
  Beta virt. eigenvalues --    0.37397   0.37975   0.39710   0.40818   0.41161
  Beta virt. eigenvalues --    0.41277   0.42892   0.43722   0.45052   0.45498
  Beta virt. eigenvalues --    0.45718   0.46216   0.47352   0.47828   0.47980
  Beta virt. eigenvalues --    0.48413   0.48796   0.49071   0.49592   0.49704
  Beta virt. eigenvalues --    0.50426   0.50532   0.51037   0.51633   0.52254
  Beta virt. eigenvalues --    0.52375   0.52972   0.54093   0.54222   0.54908
  Beta virt. eigenvalues --    0.56879   0.56928   0.57280   0.59079   0.59126
  Beta virt. eigenvalues --    0.59688   0.61160   0.62302   0.62963   0.64083
  Beta virt. eigenvalues --    0.64179   0.66189   0.67662   0.68297   0.69355
  Beta virt. eigenvalues --    0.70297   0.72491   0.72883   0.73414   0.75155
  Beta virt. eigenvalues --    0.76357   0.78066   0.78236   0.79957   0.81221
  Beta virt. eigenvalues --    0.81709   0.82194   0.83428   0.86021   0.86061
  Beta virt. eigenvalues --    0.86317   0.88695   0.90734   0.91034   0.92418
  Beta virt. eigenvalues --    0.92596   0.95035   0.95839   0.98209   0.98841
  Beta virt. eigenvalues --    1.00768   1.02668   1.03661   1.03693   1.04047
  Beta virt. eigenvalues --    1.06355   1.07180   1.08328   1.09737   1.11050
  Beta virt. eigenvalues --    1.12683   1.12972   1.14109   1.14580   1.15466
  Beta virt. eigenvalues --    1.15847   1.16037   1.16819   1.18920   1.20135
  Beta virt. eigenvalues --    1.21247   1.22677   1.22857   1.23466   1.24352
  Beta virt. eigenvalues --    1.24720   1.25633   1.26473   1.27273   1.28583
  Beta virt. eigenvalues --    1.28931   1.30085   1.31988   1.32145   1.32871
  Beta virt. eigenvalues --    1.34510   1.34643   1.35004   1.36844   1.38368
  Beta virt. eigenvalues --    1.38736   1.39012   1.40318   1.40725   1.41538
  Beta virt. eigenvalues --    1.41994   1.42309   1.43505   1.44894   1.45387
  Beta virt. eigenvalues --    1.45503   1.46191   1.46397   1.46884   1.47928
  Beta virt. eigenvalues --    1.49826   1.50447   1.51866   1.52698   1.55402
  Beta virt. eigenvalues --    1.55959   1.57126   1.57240   1.58275   1.60293
  Beta virt. eigenvalues --    1.60767   1.62168   1.62661   1.64583   1.66082
  Beta virt. eigenvalues --    1.68489   1.69015   1.69507   1.71164   1.74953
  Beta virt. eigenvalues --    1.75627   1.79506   1.80750   1.81954   1.82704
  Beta virt. eigenvalues --    1.87027   1.87872   1.88660   1.89215   1.91076
  Beta virt. eigenvalues --    1.91970   1.95808   2.00042   2.01156   2.01611
  Beta virt. eigenvalues --    2.03751   2.04590   2.06488   2.07338   2.08855
  Beta virt. eigenvalues --    2.08873   2.11633   2.12182   2.13190   2.15236
  Beta virt. eigenvalues --    2.18885   2.19241   2.19951   2.20197   2.22022
  Beta virt. eigenvalues --    2.22810   2.23035   2.23463   2.24835   2.25873
  Beta virt. eigenvalues --    2.28514   2.31286   2.37080   2.37853   2.39870
  Beta virt. eigenvalues --    2.42030   2.45864   2.47254   2.48361   2.49121
  Beta virt. eigenvalues --    2.49981   2.50021   2.51679   2.53989   2.54882
  Beta virt. eigenvalues --    2.55100   2.57201   2.57257   2.60026   2.60073
  Beta virt. eigenvalues --    2.61774   2.63698   2.64246   2.65135   2.66616
  Beta virt. eigenvalues --    2.67593   2.68851   2.69734   2.72032   2.72194
  Beta virt. eigenvalues --    2.73119   2.73145   2.74982   2.75831   2.76235
  Beta virt. eigenvalues --    2.77237   2.77996   2.78725   2.79876   2.80797
  Beta virt. eigenvalues --    2.81014   2.81571   2.82548   2.83607   2.83843
  Beta virt. eigenvalues --    2.84855   2.85439   2.86515   2.88673   2.88771
  Beta virt. eigenvalues --    2.89565   2.89663   2.91963   2.92432   2.92900
  Beta virt. eigenvalues --    2.93839   2.94538   2.94664   2.95770   2.98695
  Beta virt. eigenvalues --    3.01211   3.01701   3.02912   3.03510   3.06241
  Beta virt. eigenvalues --    3.06496   3.07807   3.08347   3.09376   3.10615
  Beta virt. eigenvalues --    3.11777   3.12010   3.12310   3.13690   3.14624
  Beta virt. eigenvalues --    3.14824   3.16703   3.17032   3.18273   3.18471
  Beta virt. eigenvalues --    3.19232   3.19278   3.19827   3.20737   3.20859
  Beta virt. eigenvalues --    3.21932   3.22337   3.23283   3.23472   3.24055
  Beta virt. eigenvalues --    3.25281   3.25318   3.27039   3.27952   3.28141
  Beta virt. eigenvalues --    3.28647   3.29164   3.29592   3.31075   3.31176
  Beta virt. eigenvalues --    3.32541   3.32951   3.33297   3.33647   3.34297
  Beta virt. eigenvalues --    3.34549   3.35062   3.35949   3.37879   3.38467
  Beta virt. eigenvalues --    3.38712   3.38987   3.41462   3.43076   3.43553
  Beta virt. eigenvalues --    3.44771   3.45752   3.46139   3.46944   3.46998
  Beta virt. eigenvalues --    3.47710   3.48377   3.49075   3.49270   3.50668
  Beta virt. eigenvalues --    3.51329   3.51431   3.52641   3.52795   3.53729
  Beta virt. eigenvalues --    3.54724   3.55521   3.59932   3.60109   3.60507
  Beta virt. eigenvalues --    3.62824   3.63862   3.64211   3.64412   3.64633
  Beta virt. eigenvalues --    3.67388   3.68264   3.69384   3.71151   3.71367
  Beta virt. eigenvalues --    3.73382   3.75589   3.76161   3.77230   3.77531
  Beta virt. eigenvalues --    3.83513   3.84254   3.84882   3.86031   3.86134
  Beta virt. eigenvalues --    3.87227   3.88464   3.89495   3.92227   3.93329
  Beta virt. eigenvalues --    3.93493   3.95130   3.98686   3.98822   4.01201
  Beta virt. eigenvalues --    4.03511   4.07901   4.09116   4.09469   4.10609
  Beta virt. eigenvalues --    4.11811   4.12365   4.13033   4.15076   4.18433
  Beta virt. eigenvalues --    4.19407   4.20267   4.21703   4.22474   4.22657
  Beta virt. eigenvalues --    4.24407   4.26672   4.30676   4.31089   4.33237
  Beta virt. eigenvalues --    4.35530   4.36201   4.37018   4.39118   4.39297
  Beta virt. eigenvalues --    4.43734   4.45068   4.45425   4.46586   4.47324
  Beta virt. eigenvalues --    4.47940   4.59182   4.60242   4.61075   4.63777
  Beta virt. eigenvalues --    4.69084   4.69694   4.71513   4.72410   4.74060
  Beta virt. eigenvalues --    4.74063   4.76049   4.77295   4.78700   4.81180
  Beta virt. eigenvalues --    4.83232   4.84212   4.88587   4.88967   4.94234
  Beta virt. eigenvalues --    4.94480   4.94522   4.95878   5.04739   5.07818
  Beta virt. eigenvalues --    5.08541   5.10081   5.17837   5.18688   5.23070
  Beta virt. eigenvalues --    5.23824   5.28400   5.31102   5.39458   5.39836
  Beta virt. eigenvalues --    5.43477   5.44637   5.47544   5.48293   5.65829
  Beta virt. eigenvalues --    5.69480   5.74335   5.75709   5.90985   5.95512
  Beta virt. eigenvalues --    7.94045   7.95692   8.00838   8.02277   8.05796
  Beta virt. eigenvalues --    8.07314   8.10935   8.11252   8.17051   8.17845
  Beta virt. eigenvalues --    8.33219   8.35388  34.76151  34.77777  34.81007
  Beta virt. eigenvalues --   34.81865  34.83881  34.86838  34.97323  34.97686
  Beta virt. eigenvalues --   35.00114  35.00972  35.15087  35.17971
          Condensed to atoms (all electrons):
               1          2          3          4          5          6
     1  C    5.121752   0.014382   0.422264  -0.001806   0.000042  -0.002847
     2  C    0.014382   5.201863  -0.001822   0.422565  -0.014855  -0.037390
     3  H    0.422264  -0.001822   0.497147   0.000036  -0.000044  -0.000054
     4  H   -0.001806   0.422565   0.000036   0.482182  -0.001269   0.000947
     5  C    0.000042  -0.014855  -0.000044  -0.001269   5.071997   0.564043
     6  C   -0.002847  -0.037390  -0.000054   0.000947   0.564043   5.201832
     7  H    0.000172  -0.000560  -0.000000  -0.000058   0.423182  -0.028912
     8  H   -0.000097   0.000947   0.000013   0.000021  -0.041696   0.422565
     9  C    0.000912   0.000502  -0.000000  -0.000453  -0.075852   0.283578
    10  H   -0.000008  -0.000302  -0.000001  -0.000038  -0.003575  -0.033495
    11  H    0.000107  -0.000826   0.000000  -0.000014   0.006453  -0.047338
    12  C   -0.000093   0.005181   0.000002   0.000990   0.318314  -0.078245
    13  H   -0.000001   0.000013   0.000000  -0.000008  -0.036923   0.004698
    14  C    0.000100  -0.002848  -0.000000  -0.000097  -0.070068   0.014366
    15  H   -0.000000  -0.000054  -0.000000   0.000013   0.007107  -0.001822
    16  C   -0.000467   0.005015  -0.000001   0.000406   0.007147  -0.078623
    17  H   -0.000074  -0.001255  -0.000001  -0.000807   0.011294  -0.000815
    18  H    0.000000   0.000625   0.000000   0.000059  -0.002130   0.010797
    19  C   -0.070042   0.564037   0.007104  -0.041688   0.001542  -0.014860
    20  H    0.003777  -0.028896  -0.000127  -0.005851   0.000085  -0.000561
    21  C    0.599357  -0.078256  -0.032906   0.005924   0.000275   0.005183
    22  H   -0.027237   0.004710  -0.006284  -0.000090   0.000008   0.000013
    23  C   -0.089869   0.283607   0.005275  -0.016473  -0.000240   0.000502
    24  H    0.012079  -0.047336  -0.000145  -0.004136   0.003094  -0.000826
    25  H    0.006512  -0.033500   0.000036   0.000182   0.000167  -0.000302
    26  C    0.291606  -0.078606  -0.029861   0.004206  -0.001225   0.005014
    27  H   -0.036334   0.010791  -0.004664  -0.000150   0.000373   0.000624
    28  H   -0.034541  -0.000811   0.001531  -0.000152  -0.001988  -0.001259
               7          8          9         10         11         12
     1  C    0.000172  -0.000097   0.000912  -0.000008   0.000107  -0.000093
     2  C   -0.000560   0.000947   0.000502  -0.000302  -0.000826   0.005181
     3  H   -0.000000   0.000013  -0.000000  -0.000001   0.000000   0.000002
     4  H   -0.000058   0.000021  -0.000453  -0.000038  -0.000014   0.000990
     5  C    0.423182  -0.041696  -0.075852  -0.003575   0.006453   0.318314
     6  C   -0.028912   0.422565   0.283578  -0.033495  -0.047338  -0.078245
     7  H    0.488754  -0.005851   0.003834  -0.000304  -0.000077  -0.031306
     8  H   -0.005851   0.482243  -0.016479   0.000181  -0.004137   0.005926
     9  C    0.003834  -0.016479   4.907724   0.381192   0.439179   0.033273
    10  H   -0.000304   0.000181   0.381192   0.581378  -0.021774   0.001876
    11  H   -0.000077  -0.004137   0.439179  -0.021774   0.545355  -0.003105
    12  C   -0.031306   0.005926   0.033273   0.001876  -0.003105   4.991419
    13  H   -0.003443  -0.000091  -0.000473  -0.000055   0.000039   0.424746
    14  C    0.003767  -0.001805  -0.089864   0.006516   0.012080   0.599396
    15  H   -0.000127   0.000036   0.005276   0.000036  -0.000145  -0.032897
    16  C   -0.000723   0.004204   0.381869  -0.028701  -0.046392  -0.067131
    17  H    0.000027  -0.000153  -0.036815   0.007972  -0.008533  -0.015791
    18  H    0.000040  -0.000150  -0.042323  -0.008080  -0.001655   0.005736
    19  C    0.000085  -0.001269  -0.000243   0.000167   0.003097   0.000275
    20  H    0.000006  -0.000058   0.001021   0.000059  -0.000077  -0.000080
    21  C   -0.000080   0.000989  -0.000112   0.000024  -0.000542  -0.000140
    22  H   -0.000000  -0.000008  -0.000033  -0.000000  -0.000009   0.000000
    23  C    0.001023  -0.000454   0.000164  -0.000009   0.000027  -0.000110
    24  H   -0.000078  -0.000014   0.000027   0.000004  -0.000014  -0.000541
    25  H    0.000059  -0.000038  -0.000009   0.000000   0.000004   0.000024
    26  C   -0.000897   0.000407  -0.000502   0.000025  -0.000039   0.000483
    27  H   -0.000016   0.000059  -0.000026   0.000001  -0.000001  -0.000051
    28  H    0.001410  -0.000807   0.000197  -0.000008   0.000027   0.000488
              13         14         15         16         17         18
     1  C   -0.000001   0.000100  -0.000000  -0.000467  -0.000074   0.000000
     2  C    0.000013  -0.002848  -0.000054   0.005015  -0.001255   0.000625
     3  H    0.000000  -0.000000  -0.000000  -0.000001  -0.000001   0.000000
     4  H   -0.000008  -0.000097   0.000013   0.000406  -0.000807   0.000059
     5  C   -0.036923  -0.070068   0.007107   0.007147   0.011294  -0.002130
     6  C    0.004698   0.014366  -0.001822  -0.078623  -0.000815   0.010797
     7  H   -0.003443   0.003767  -0.000127  -0.000723   0.000027   0.000040
     8  H   -0.000091  -0.001805   0.000036   0.004204  -0.000153  -0.000150
     9  C   -0.000473  -0.089864   0.005276   0.381869  -0.036815  -0.042323
    10  H   -0.000055   0.006516   0.000036  -0.028701   0.007972  -0.008080
    11  H    0.000039   0.012080  -0.000145  -0.046392  -0.008533  -0.001655
    12  C    0.424746   0.599396  -0.032897  -0.067131  -0.015791   0.005736
    13  H    0.495204  -0.027275  -0.006283   0.004756  -0.000395  -0.000136
    14  C   -0.027275   5.121634   0.422237   0.291622  -0.034533  -0.036359
    15  H   -0.006283   0.422237   0.497189  -0.029852   0.001530  -0.004667
    16  C    0.004756   0.291622  -0.029852   4.907904   0.396364   0.427916
    17  H   -0.000395  -0.034533   0.001530   0.396364   0.597108  -0.021924
    18  H   -0.000136  -0.036359  -0.004667   0.427916  -0.021924   0.547539
    19  C    0.000008   0.000040  -0.000044  -0.001218  -0.001989   0.000373
    20  H   -0.000000   0.000172  -0.000000  -0.000895   0.001409  -0.000016
    21  C    0.000000  -0.000093   0.000002   0.000483   0.000488  -0.000051
    22  H    0.000000  -0.000001   0.000000   0.000006  -0.000006  -0.000001
    23  C   -0.000033   0.000911  -0.000000  -0.000502   0.000197  -0.000026
    24  H   -0.000009   0.000106   0.000000  -0.000039   0.000027  -0.000001
    25  H   -0.000000  -0.000008  -0.000001   0.000025  -0.000008   0.000001
    26  C    0.000006  -0.000467  -0.000001   0.000883   0.000142  -0.000001
    27  H   -0.000001   0.000000   0.000000  -0.000001   0.000004  -0.000000
    28  H   -0.000006  -0.000074  -0.000001   0.000142  -0.000024   0.000004
              19         20         21         22         23         24
     1  C   -0.070042   0.003777   0.599357  -0.027237  -0.089869   0.012079
     2  C    0.564037  -0.028896  -0.078256   0.004710   0.283607  -0.047336
     3  H    0.007104  -0.000127  -0.032906  -0.006284   0.005275  -0.000145
     4  H   -0.041688  -0.005851   0.005924  -0.000090  -0.016473  -0.004136
     5  C    0.001542   0.000085   0.000275   0.000008  -0.000240   0.003094
     6  C   -0.014860  -0.000561   0.005183   0.000013   0.000502  -0.000826
     7  H    0.000085   0.000006  -0.000080  -0.000000   0.001023  -0.000078
     8  H   -0.001269  -0.000058   0.000989  -0.000008  -0.000454  -0.000014
     9  C   -0.000243   0.001021  -0.000112  -0.000033   0.000164   0.000027
    10  H    0.000167   0.000059   0.000024  -0.000000  -0.000009   0.000004
    11  H    0.003097  -0.000077  -0.000542  -0.000009   0.000027  -0.000014
    12  C    0.000275  -0.000080  -0.000140   0.000000  -0.000110  -0.000541
    13  H    0.000008  -0.000000   0.000000   0.000000  -0.000033  -0.000009
    14  C    0.000040   0.000172  -0.000093  -0.000001   0.000911   0.000106
    15  H   -0.000044  -0.000000   0.000002   0.000000  -0.000000   0.000000
    16  C   -0.001218  -0.000895   0.000483   0.000006  -0.000502  -0.000039
    17  H   -0.001989   0.001409   0.000488  -0.000006   0.000197   0.000027
    18  H    0.000373  -0.000016  -0.000051  -0.000001  -0.000026  -0.000001
    19  C    5.072012   0.423205   0.318216  -0.036992  -0.075886   0.006456
    20  H    0.423205   0.488921  -0.031368  -0.003447   0.003835  -0.000077
    21  C    0.318216  -0.031368   4.991410   0.424766   0.033309  -0.003105
    22  H   -0.036992  -0.003447   0.424766   0.495219  -0.000474   0.000039
    23  C   -0.075886   0.003835   0.033309  -0.000474   4.907751   0.439188
    24  H    0.006456  -0.000077  -0.003105   0.000039   0.439188   0.545310
    25  H   -0.003575  -0.000304   0.001878  -0.000055   0.381194  -0.021773
    26  C    0.007126  -0.000726  -0.067129   0.004758   0.381846  -0.046391
    27  H   -0.002124   0.000040   0.005722  -0.000136  -0.042317  -0.001654
    28  H    0.011292   0.000027  -0.015781  -0.000395  -0.036829  -0.008532
              25         26         27         28
     1  C    0.006512   0.291606  -0.036334  -0.034541
     2  C   -0.033500  -0.078606   0.010791  -0.000811
     3  H    0.000036  -0.029861  -0.004664   0.001531
     4  H    0.000182   0.004206  -0.000150  -0.000152
     5  C    0.000167  -0.001225   0.000373  -0.001988
     6  C   -0.000302   0.005014   0.000624  -0.001259
     7  H    0.000059  -0.000897  -0.000016   0.001410
     8  H   -0.000038   0.000407   0.000059  -0.000807
     9  C   -0.000009  -0.000502  -0.000026   0.000197
    10  H    0.000000   0.000025   0.000001  -0.000008
    11  H    0.000004  -0.000039  -0.000001   0.000027
    12  C    0.000024   0.000483  -0.000051   0.000488
    13  H   -0.000000   0.000006  -0.000001  -0.000006
    14  C   -0.000008  -0.000467   0.000000  -0.000074
    15  H   -0.000001  -0.000001   0.000000  -0.000001
    16  C    0.000025   0.000883  -0.000001   0.000142
    17  H   -0.000008   0.000142   0.000004  -0.000024
    18  H    0.000001  -0.000001  -0.000000   0.000004
    19  C   -0.003575   0.007126  -0.002124   0.011292
    20  H   -0.000304  -0.000726   0.000040   0.000027
    21  C    0.001878  -0.067129   0.005722  -0.015781
    22  H   -0.000055   0.004758  -0.000136  -0.000395
    23  C    0.381194   0.381846  -0.042317  -0.036829
    24  H   -0.021773  -0.046391  -0.001654  -0.008532
    25  H    0.581385  -0.028702  -0.008082   0.007973
    26  C   -0.028702   4.907894   0.427901   0.396361
    27  H   -0.008082   0.427901   0.547538  -0.021928
    28  H    0.007973   0.396361  -0.021928   0.597160
          Atomic-Atomic Spin Densities.
               1          2          3          4          5          6
     1  C   -0.000001  -0.000000   0.000000   0.000000   0.000000  -0.000000
     2  C   -0.000000  -0.000000   0.000000   0.000000  -0.000000   0.000000
     3  H    0.000000   0.000000   0.000000  -0.000000  -0.000000   0.000000
     4  H    0.000000   0.000000  -0.000000  -0.000000   0.000000  -0.000000
     5  C    0.000000  -0.000000  -0.000000   0.000000  -0.000001   0.000000
     6  C   -0.000000   0.000000   0.000000  -0.000000   0.000000  -0.000000
     7  H   -0.000000   0.000000   0.000000  -0.000000  -0.000000  -0.000000
     8  H    0.000000   0.000000  -0.000000   0.000000  -0.000000  -0.000000
     9  C   -0.000000   0.000000  -0.000000  -0.000000  -0.000000   0.000000
    10  H   -0.000000  -0.000000  -0.000000   0.000000  -0.000000   0.000000
    11  H    0.000000  -0.000000   0.000000   0.000000   0.000000   0.000000
    12  C   -0.000000   0.000000   0.000000  -0.000000   0.000000  -0.000000
    13  H    0.000000   0.000000   0.000000   0.000000   0.000000  -0.000000
    14  C   -0.000000   0.000000  -0.000000  -0.000000   0.000000   0.000000
    15  H    0.000000  -0.000000  -0.000000   0.000000  -0.000000  -0.000000
    16  C   -0.000000   0.000000   0.000000   0.000000  -0.000000  -0.000000
    17  H   -0.000000  -0.000000  -0.000000   0.000000   0.000000   0.000000
    18  H   -0.000000   0.000000   0.000000   0.000000   0.000000  -0.000000
    19  C   -0.000000  -0.000000   0.000000   0.000000   0.000000   0.000000
    20  H   -0.000000   0.000000   0.000000   0.000000  -0.000000  -0.000000
    21  C    0.000000   0.000000  -0.000000  -0.000000   0.000000  -0.000000
    22  H   -0.000000   0.000000  -0.000000  -0.000000   0.000000  -0.000000
    23  C   -0.000000  -0.000000   0.000000  -0.000000  -0.000000  -0.000000
    24  H   -0.000000   0.000000   0.000000   0.000000   0.000000   0.000000
    25  H   -0.000000  -0.000000   0.000000   0.000000  -0.000000   0.000000
    26  C    0.000000   0.000000   0.000000  -0.000000   0.000000  -0.000000
    27  H    0.000000   0.000000  -0.000000   0.000000   0.000000  -0.000000
    28  H    0.000000  -0.000000  -0.000000   0.000000  -0.000000   0.000000
               7          8          9         10         11         12
     1  C   -0.000000   0.000000  -0.000000  -0.000000   0.000000  -0.000000
     2  C    0.000000   0.000000   0.000000  -0.000000  -0.000000   0.000000
     3  H    0.000000  -0.000000  -0.000000  -0.000000   0.000000   0.000000
     4  H   -0.000000   0.000000  -0.000000   0.000000   0.000000  -0.000000
     5  C   -0.000000  -0.000000  -0.000000  -0.000000   0.000000   0.000000
     6  C   -0.000000  -0.000000   0.000000   0.000000   0.000000  -0.000000
     7  H    0.000000  -0.000000   0.000000  -0.000000  -0.000000  -0.000000
     8  H   -0.000000   0.000000   0.000000  -0.000000  -0.000000   0.000000
     9  C    0.000000   0.000000  -0.000001  -0.000000   0.000000   0.000000
    10  H   -0.000000  -0.000000  -0.000000   0.000000  -0.000000   0.000000
    11  H   -0.000000  -0.000000   0.000000  -0.000000   0.000000  -0.000000
    12  C   -0.000000   0.000000   0.000000   0.000000  -0.000000   0.000000
    13  H    0.000000   0.000000   0.000000  -0.000000  -0.000000  -0.000000
    14  C    0.000000  -0.000000  -0.000000   0.000000   0.000000  -0.000000
    15  H   -0.000000   0.000000  -0.000000  -0.000000  -0.000000   0.000000
    16  C   -0.000000   0.000000   0.000000  -0.000000  -0.000000   0.000000
    17  H   -0.000000  -0.000000   0.000000   0.000000  -0.000000   0.000000
    18  H    0.000000  -0.000000   0.000000   0.000000  -0.000000  -0.000000
    19  C    0.000000  -0.000000   0.000000   0.000000  -0.000000  -0.000000
    20  H   -0.000000   0.000000  -0.000000  -0.000000   0.000000   0.000000
    21  C   -0.000000   0.000000  -0.000000   0.000000   0.000000   0.000000
    22  H    0.000000  -0.000000  -0.000000  -0.000000   0.000000   0.000000
    23  C    0.000000   0.000000   0.000000  -0.000000   0.000000   0.000000
    24  H   -0.000000  -0.000000  -0.000000   0.000000   0.000000  -0.000000
    25  H    0.000000  -0.000000   0.000000   0.000000  -0.000000  -0.000000
    26  C   -0.000000  -0.000000   0.000000   0.000000  -0.000000  -0.000000
    27  H   -0.000000  -0.000000  -0.000000   0.000000  -0.000000  -0.000000
    28  H    0.000000  -0.000000   0.000000   0.000000  -0.000000  -0.000000
              13         14         15         16         17         18
     1  C    0.000000  -0.000000   0.000000  -0.000000  -0.000000  -0.000000
     2  C    0.000000   0.000000  -0.000000   0.000000  -0.000000   0.000000
     3  H    0.000000  -0.000000  -0.000000   0.000000  -0.000000   0.000000
     4  H    0.000000  -0.000000   0.000000   0.000000   0.000000   0.000000
     5  C    0.000000   0.000000  -0.000000  -0.000000   0.000000   0.000000
     6  C   -0.000000   0.000000  -0.000000  -0.000000   0.000000  -0.000000
     7  H    0.000000   0.000000  -0.000000  -0.000000  -0.000000   0.000000
     8  H    0.000000  -0.000000   0.000000   0.000000  -0.000000  -0.000000
     9  C    0.000000  -0.000000  -0.000000   0.000000   0.000000   0.000000
    10  H   -0.000000   0.000000  -0.000000  -0.000000   0.000000   0.000000
    11  H   -0.000000   0.000000  -0.000000  -0.000000  -0.000000  -0.000000
    12  C   -0.000000  -0.000000   0.000000   0.000000   0.000000  -0.000000
    13  H   -0.000000   0.000000   0.000000  -0.000000  -0.000000   0.000000
    14  C    0.000000   0.000001  -0.000000  -0.000000  -0.000000  -0.000000
    15  H    0.000000  -0.000000  -0.000000   0.000000   0.000000   0.000000
    16  C   -0.000000  -0.000000   0.000000   0.000001  -0.000000  -0.000000
    17  H   -0.000000  -0.000000   0.000000  -0.000000   0.000000   0.000000
    18  H    0.000000  -0.000000   0.000000  -0.000000   0.000000  -0.000000
    19  C   -0.000000  -0.000000   0.000000  -0.000000   0.000000  -0.000000
    20  H   -0.000000   0.000000  -0.000000   0.000000  -0.000000   0.000000
    21  C   -0.000000   0.000000  -0.000000   0.000000   0.000000   0.000000
    22  H    0.000000  -0.000000  -0.000000   0.000000  -0.000000   0.000000
    23  C    0.000000   0.000000   0.000000  -0.000000  -0.000000   0.000000
    24  H   -0.000000  -0.000000  -0.000000   0.000000   0.000000   0.000000
    25  H    0.000000   0.000000   0.000000  -0.000000  -0.000000  -0.000000
    26  C   -0.000000   0.000000  -0.000000   0.000000   0.000000   0.000000
    27  H   -0.000000   0.000000  -0.000000  -0.000000   0.000000  -0.000000
    28  H    0.000000   0.000000   0.000000  -0.000000  -0.000000  -0.000000
              19         20         21         22         23         24
     1  C   -0.000000  -0.000000   0.000000  -0.000000  -0.000000  -0.000000
     2  C   -0.000000   0.000000   0.000000   0.000000  -0.000000   0.000000
     3  H    0.000000   0.000000  -0.000000  -0.000000   0.000000   0.000000
     4  H    0.000000   0.000000  -0.000000  -0.000000  -0.000000   0.000000
     5  C    0.000000  -0.000000   0.000000   0.000000  -0.000000   0.000000
     6  C    0.000000  -0.000000  -0.000000  -0.000000  -0.000000   0.000000
     7  H    0.000000  -0.000000  -0.000000   0.000000   0.000000  -0.000000
     8  H   -0.000000   0.000000   0.000000  -0.000000   0.000000  -0.000000
     9  C    0.000000  -0.000000  -0.000000  -0.000000   0.000000  -0.000000
    10  H    0.000000  -0.000000   0.000000  -0.000000  -0.000000   0.000000
    11  H   -0.000000   0.000000   0.000000   0.000000   0.000000   0.000000
    12  C   -0.000000   0.000000   0.000000   0.000000   0.000000  -0.000000
    13  H   -0.000000  -0.000000  -0.000000   0.000000   0.000000  -0.000000
    14  C   -0.000000   0.000000   0.000000  -0.000000   0.000000  -0.000000
    15  H    0.000000  -0.000000  -0.000000  -0.000000   0.000000  -0.000000
    16  C   -0.000000   0.000000   0.000000   0.000000  -0.000000   0.000000
    17  H    0.000000  -0.000000   0.000000  -0.000000  -0.000000   0.000000
    18  H   -0.000000   0.000000   0.000000   0.000000   0.000000   0.000000
    19  C    0.000001   0.000000  -0.000000  -0.000000   0.000000  -0.000000
    20  H    0.000000  -0.000001   0.000000  -0.000000  -0.000000   0.000000
[...]
     2  C   -0.000000   0.000000   0.000000  -0.000000
     3  H    0.000000   0.000000  -0.000000  -0.000000
     4  H    0.000000  -0.000000   0.000000   0.000000
     5  C   -0.000000   0.000000   0.000000  -0.000000
     6  C    0.000000  -0.000000  -0.000000   0.000000
     7  H    0.000000  -0.000000  -0.000000   0.000000
     8  H   -0.000000  -0.000000  -0.000000  -0.000000
     9  C    0.000000   0.000000  -0.000000   0.000000
    10  H    0.000000   0.000000   0.000000   0.000000
    11  H   -0.000000  -0.000000  -0.000000  -0.000000
    12  C   -0.000000  -0.000000  -0.000000  -0.000000
    13  H    0.000000  -0.000000  -0.000000   0.000000
    14  C    0.000000   0.000000   0.000000   0.000000
    15  H    0.000000  -0.000000  -0.000000   0.000000
    16  C   -0.000000   0.000000  -0.000000  -0.000000
    17  H   -0.000000   0.000000   0.000000  -0.000000
    18  H   -0.000000   0.000000  -0.000000  -0.000000
    19  C    0.000000   0.000000  -0.000000  -0.000000
    20  H    0.000000   0.000000  -0.000000   0.000000
    21  C   -0.000000  -0.000000   0.000000  -0.000000
    22  H    0.000000   0.000000  -0.000000   0.000000
    23  C    0.000000  -0.000000  -0.000000  -0.000000
    24  H    0.000000   0.000000   0.000000   0.000000
    25  H   -0.000000   0.000000  -0.000000  -0.000000
    26  C    0.000000  -0.000001   0.000000   0.000000
    27  H   -0.000000   0.000000   0.000000  -0.000000
    28  H   -0.000000   0.000000  -0.000000  -0.000000
 Mulliken charges and spin densities:
               1          2
     1  C   -0.209647  -0.000001
     2  C   -0.186921  -0.000000
     3  H    0.142502   0.000000
     4  H    0.155561   0.000000
     5  C   -0.165256  -0.000001
     6  C   -0.186814   0.000000
     7  H    0.150072   0.000000
     8  H    0.155513  -0.000000
     9  C   -0.175563  -0.000001
    10  H    0.116918   0.000000
    11  H    0.128309   0.000000
    12  C   -0.158641  -0.000000
    13  H    0.145660  -0.000000
    14  C   -0.209460   0.000001
    15  H    0.142468  -0.000000
    16  C   -0.174198   0.000000
    17  H    0.106564   0.000000
    18  H    0.124430  -0.000000
    19  C   -0.165106   0.000001
    20  H    0.149926  -0.000000
    21  C   -0.158461  -0.000000
    22  H    0.145650   0.000000
    23  C   -0.175607   0.000001
    24  H    0.128340  -0.000000
    25  H    0.116916  -0.000000
    26  C   -0.174111  -0.000000
    27  H    0.124431   0.000000
    28  H    0.106524   0.000000
 Sum of Mulliken charges =  -0.00000   0.00000
 Mulliken charges and spin densities with hydrogens summed into heavy atoms:
               1          2
     1  C   -0.067145  -0.000001
     2  C   -0.031360  -0.000000
     5  C   -0.015184  -0.000000
     6  C   -0.031301   0.000000
     9  C    0.069665  -0.000000
    12  C   -0.012981  -0.000000
    14  C   -0.066992   0.000001
    16  C    0.056796   0.000000
    19  C   -0.015179   0.000000
    21  C   -0.012811   0.000000
    23  C    0.069649   0.000000
    26  C    0.056844  -0.000000
 Electronic spatial extent (au):  <R**2>=           2373.2633
 Charge=             -0.0000 electrons
 Dipole moment (field-independent basis, Debye):
    X=             -0.0009    Y=              0.0008    Z=              0.0004  Tot=              0.0013
 Quadrupole moment (field-independent basis, Debye-Ang):
   XX=            -73.0150   YY=            -69.7114   ZZ=            -76.2435
   XY=             -3.1547   XZ=             -4.1460   YZ=             -1.6541
 Traceless Quadrupole moment (field-independent basis, Debye-Ang):
   XX=             -0.0250   YY=              3.2786   ZZ=             -3.2535
   XY=             -3.1547   XZ=             -4.1460   YZ=             -1.6541
 Octapole moment (field-independent basis, Debye-Ang**2):
  XXX=             -0.0218  YYY=              0.0073  ZZZ=              0.0005  XYY=              0.0009
  XXY=             -0.0011  XXZ=              0.0032  XZZ=              0.0001  YZZ=              0.0007
  YYZ=              0.0022  XYZ=              0.0014
 Hexadecapole moment (field-independent basis, Debye-Ang**3):
 XXXX=          -2149.6884 YYYY=           -627.5177 ZZZZ=           -491.3324 XXXY=           -126.5211
 XXXZ=           -190.1944 YYYX=            -75.2427 YYYZ=            -13.3315 ZZZX=           -132.5732
 ZZZY=            -27.4418 XXYY=           -455.6790 XXZZ=           -455.4815 YYZZ=           -201.5673
 XXYZ=            -28.0318 YYXZ=            -46.6174 ZZXY=            -49.5394
 N-N= 6.672473091871D+02 E-N=-2.416230745667D+03  KE= 4.641357251902D+02
                          Isotropic Fermi Contact Couplings
        Atom                 a.u.       MegaHertz       Gauss      10(-4) cm-1
     1  C(13)             -0.00000      -0.00002      -0.00001      -0.00001
     2  C(13)             -0.00000      -0.00005      -0.00002      -0.00002
     3  H(1)              -0.00000      -0.00000      -0.00000      -0.00000
     4  H(1)               0.00000       0.00005       0.00002       0.00002
     5  C(13)             -0.00000      -0.00018      -0.00006      -0.00006
     6  C(13)              0.00000       0.00005       0.00002       0.00002
     7  H(1)               0.00000       0.00027       0.00010       0.00009
     8  H(1)              -0.00000      -0.00005      -0.00002      -0.00002
     9  C(13)             -0.00000      -0.00020      -0.00007      -0.00007
    10  H(1)               0.00000       0.00009       0.00003       0.00003
    11  H(1)               0.00000       0.00010       0.00003       0.00003
    12  C(13)              0.00000       0.00012       0.00004       0.00004
    13  H(1)              -0.00000      -0.00023      -0.00008      -0.00008
    14  C(13)              0.00000       0.00003       0.00001       0.00001
    15  H(1)              -0.00000      -0.00000      -0.00000      -0.00000
    16  C(13)              0.00000       0.00012       0.00004       0.00004
    17  H(1)              -0.00000      -0.00003      -0.00001      -0.00001
    18  H(1)              -0.00000      -0.00005      -0.00002      -0.00002
    19  C(13)              0.00000       0.00019       0.00007       0.00006
    20  H(1)              -0.00000      -0.00027      -0.00010      -0.00009
    21  C(13)             -0.00000      -0.00013      -0.00005      -0.00004
    22  H(1)               0.00000       0.00023       0.00008       0.00008
    23  C(13)              0.00000       0.00020       0.00007       0.00007
    24  H(1)              -0.00000      -0.00010      -0.00004      -0.00003
    25  H(1)              -0.00000      -0.00010      -0.00003      -0.00003
    26  C(13)             -0.00000      -0.00012      -0.00004      -0.00004
    27  H(1)               0.00000       0.00005       0.00002       0.00002
    28  H(1)               0.00000       0.00004       0.00001       0.00001
 --------------------------------------------------------
       Center         ----  Spin Dipole Couplings  ----
                      3XX-RR        3YY-RR        3ZZ-RR
 --------------------------------------------------------
     1   Atom       -0.000000      0.000000      0.000000
     2   Atom        0.000000      0.000000     -0.000000
     3   Atom        0.000000      0.000000     -0.000000
     4   Atom       -0.000000      0.000000      0.000000
     5   Atom       -0.000000     -0.000000      0.000001
     6   Atom       -0.000000      0.000000      0.000000
     7   Atom        0.000000     -0.000000      0.000000
     8   Atom        0.000000      0.000000     -0.000000
     9   Atom       -0.000000      0.000000     -0.000000
    10   Atom        0.000000      0.000000     -0.000000
    11   Atom        0.000000     -0.000000      0.000000
    12   Atom        0.000000      0.000001     -0.000001
    13   Atom       -0.000000      0.000000     -0.000000
    14   Atom        0.000000     -0.000000     -0.000000
    15   Atom       -0.000000     -0.000000      0.000000
    16   Atom        0.000000     -0.000000      0.000000
    17   Atom        0.000000     -0.000000     -0.000000
    18   Atom        0.000000      0.000000     -0.000000
    19   Atom        0.000000      0.000000     -0.000001
    20   Atom       -0.000000      0.000000     -0.000000
    21   Atom       -0.000000     -0.000001      0.000001
    22   Atom        0.000000     -0.000000      0.000000
    23   Atom        0.000000     -0.000000      0.000000
    24   Atom       -0.000000      0.000000     -0.000000
    25   Atom       -0.000000     -0.000000      0.000000
    26   Atom       -0.000000      0.000000     -0.000000
    27   Atom       -0.000000     -0.000000      0.000000
    28   Atom       -0.000000      0.000000     -0.000000
 --------------------------------------------------------
                        XY            XZ            YZ
 --------------------------------------------------------
     1   Atom        0.000000     -0.000001      0.000000
     2   Atom        0.000000      0.000000      0.000000
     3   Atom       -0.000000      0.000000      0.000000
     4   Atom       -0.000000     -0.000000      0.000000
     5   Atom        0.000000     -0.000000     -0.000000
     6   Atom       -0.000000     -0.000000     -0.000000
     7   Atom        0.000000      0.000000     -0.000000
     8   Atom        0.000000      0.000000     -0.000000
     9   Atom       -0.000000      0.000000     -0.000000
    10   Atom        0.000000     -0.000000      0.000000
    11   Atom       -0.000000      0.000000     -0.000000
    12   Atom        0.000000     -0.000000     -0.000000
    13   Atom        0.000000     -0.000000     -0.000000
    14   Atom       -0.000000      0.000001     -0.000000
    15   Atom        0.000000     -0.000000     -0.000000
    16   Atom       -0.000000     -0.000000     -0.000000
    17   Atom        0.000000      0.000000      0.000000
    18   Atom       -0.000000      0.000000     -0.000000
    19   Atom       -0.000000      0.000000      0.000000
    20   Atom       -0.000000     -0.000000      0.000000
    21   Atom       -0.000000      0.000000      0.000000
    22   Atom       -0.000000      0.000000      0.000000
    23   Atom        0.000000     -0.000000      0.000000
    24   Atom        0.000000     -0.000000      0.000000
    25   Atom       -0.000000      0.000000     -0.000000
    26   Atom        0.000000      0.000000      0.000000
    27   Atom        0.000000     -0.000000      0.000000
    28   Atom       -0.000000     -0.000000     -0.000000
 --------------------------------------------------------


 ---------------------------------------------------------------------------------
              Anisotropic Spin Dipole Couplings in Principal Axis System
 ---------------------------------------------------------------------------------

       Atom             a.u.   MegaHertz   Gauss  10(-4) cm-1        Axes

              Baa    -0.0000    -0.000    -0.000    -0.000  0.8311 -0.1496  0.5357
     1 C(13)  Bbb     0.0000     0.000     0.000     0.000  0.1271  0.9887  0.0791
              Bcc     0.0000     0.000     0.000     0.000 -0.5415  0.0023  0.8407
 
              Baa    -0.0000    -0.000    -0.000    -0.000 -0.2588  0.0964  0.9611
     2 C(13)  Bbb    -0.0000    -0.000    -0.000    -0.000 -0.3760  0.9065 -0.1922
              Bcc     0.0000     0.000     0.000     0.000  0.8897  0.4111  0.1984
 
              Baa    -0.0000    -0.000    -0.000    -0.000 -0.2684 -0.1928  0.9438
     3 H(1)   Bbb     0.0000     0.000     0.000     0.000  0.4732  0.8271  0.3034
              Bcc     0.0000     0.000     0.000     0.000  0.8391 -0.5280  0.1307
 
              Baa    -0.0000    -0.000    -0.000    -0.000  0.9837  0.1395  0.1133
     4 H(1)   Bbb     0.0000     0.000     0.000     0.000 -0.0979  0.9447 -0.3131
              Bcc     0.0000     0.000     0.000     0.000 -0.1507  0.2969  0.9429
 
              Baa    -0.0000    -0.000    -0.000    -0.000  0.8813 -0.4722  0.0155
     5 C(13)  Bbb    -0.0000    -0.000    -0.000    -0.000  0.4589  0.8633  0.2099
              Bcc     0.0000     0.000     0.000     0.000 -0.1125 -0.1779  0.9776
 
              Baa    -0.0000    -0.000    -0.000    -0.000  0.8792  0.3868  0.2782
     6 C(13)  Bbb     0.0000     0.000     0.000     0.000 -0.3327  0.9164 -0.2225
              Bcc     0.0000     0.000     0.000     0.000 -0.3410  0.1030  0.9344
 
              Baa    -0.0000    -0.000    -0.000    -0.000 -0.5008  0.8317  0.2397
     7 H(1)   Bbb     0.0000     0.000     0.000     0.000  0.8638  0.4977  0.0779
              Bcc     0.0000     0.000     0.000     0.000  0.0545 -0.2461  0.9677
 
              Baa    -0.0000    -0.000    -0.000    -0.000 -0.1756  0.2678  0.9474
     8 H(1)   Bbb     0.0000     0.000     0.000     0.000 -0.0929  0.9535 -0.2867
              Bcc     0.0000     0.000     0.000     0.000  0.9801  0.1384  0.1425
 
              Baa    -0.0000    -0.000    -0.000    -0.000  0.7240  0.0902 -0.6838
     9 C(13)  Bbb    -0.0000    -0.000    -0.000    -0.000  0.5310  0.5599  0.6361
              Bcc     0.0000     0.000     0.000     0.000 -0.4402  0.8237 -0.3575
 
              Baa    -0.0000    -0.000    -0.000    -0.000  0.5450 -0.2054  0.8129
    10 H(1)   Bbb     0.0000     0.000     0.000     0.000 -0.5780  0.6104  0.5416
              Bcc     0.0000     0.000     0.000     0.000  0.6074  0.7650 -0.2140
 
              Baa    -0.0000    -0.000    -0.000    -0.000  0.5574  0.8283  0.0568
    11 H(1)   Bbb     0.0000     0.000     0.000     0.000 -0.4192  0.2217  0.8804
              Bcc     0.0000     0.000     0.000     0.000  0.7166 -0.5146  0.4708
 
              Baa    -0.0000    -0.000    -0.000    -0.000  0.1994  0.0359  0.9793
    12 C(13)  Bbb     0.0000     0.000     0.000     0.000  0.8645 -0.4771 -0.1585
              Bcc     0.0000     0.000     0.000     0.000  0.4615  0.8781 -0.1261
 
              Baa    -0.0000    -0.000    -0.000    -0.000  0.3983  0.1942  0.8965
    13 H(1)   Bbb    -0.0000    -0.000    -0.000    -0.000  0.8978 -0.2827 -0.3376
              Bcc     0.0000     0.000     0.000     0.000  0.1879  0.9393 -0.2869
 
              Baa    -0.0000    -0.000    -0.000    -0.000 -0.5728 -0.0101  0.8196
    14 C(13)  Bbb    -0.0000    -0.000    -0.000    -0.000  0.1098  0.9900  0.0889
              Bcc     0.0000     0.000     0.000     0.000  0.8123 -0.1409  0.5659
 
              Baa    -0.0000    -0.000    -0.000    -0.000 -0.3068  0.9470  0.0953
    15 H(1)   Bbb    -0.0000    -0.000    -0.000    -0.000  0.9062  0.2600  0.3335
              Bcc     0.0000     0.000     0.000     0.000 -0.2910 -0.1886  0.9379
 
              Baa    -0.0000    -0.000    -0.000    -0.000  0.3677  0.8665  0.3375
    16 C(13)  Bbb    -0.0000    -0.000    -0.000    -0.000  0.6537 -0.4990  0.5689
              Bcc     0.0000     0.000     0.000     0.000 -0.6614 -0.0115  0.7500
 
              Baa    -0.0000    -0.000    -0.000    -0.000 -0.5066  0.7988 -0.3245
    17 H(1)   Bbb    -0.0000    -0.000    -0.000    -0.000 -0.5822 -0.0394  0.8121
              Bcc     0.0000     0.000     0.000     0.000  0.6359  0.6004  0.4850
 
              Baa    -0.0000    -0.000    -0.000    -0.000  0.6070  0.5825  0.5406
    18 H(1)   Bbb    -0.0000    -0.000    -0.000    -0.000 -0.5401 -0.1966  0.8183
              Bcc     0.0000     0.000     0.000     0.000 -0.5830  0.7887 -0.1953
 
              Baa    -0.0000    -0.000    -0.000    -0.000 -0.1582 -0.2055  0.9658
    19 C(13)  Bbb     0.0000     0.000     0.000     0.000 -0.2862  0.9457  0.1543
              Bcc     0.0000     0.000     0.000     0.000  0.9450  0.2520  0.2084
 
              Baa    -0.0000    -0.000    -0.000    -0.000 -0.0637 -0.3121  0.9479
    20 H(1)   Bbb    -0.0000    -0.000    -0.000    -0.000  0.8612  0.4628  0.2103
              Bcc     0.0000     0.000     0.000     0.000 -0.5043  0.8297  0.2392
 
              Baa    -0.0000    -0.000    -0.000    -0.000  0.4834  0.8667 -0.1231
    21 C(13)  Bbb    -0.0000    -0.000    -0.000    -0.000  0.8582 -0.4969 -0.1286
              Bcc     0.0000     0.000     0.000     0.000  0.1727  0.0435  0.9840
 
              Baa    -0.0000    -0.000    -0.000    -0.000  0.2036  0.9347 -0.2912
    22 H(1)   Bbb     0.0000     0.000     0.000     0.000  0.9067 -0.2922 -0.3042
              Bcc     0.0000     0.000     0.000     0.000  0.3694  0.2021  0.9070
 
              Baa    -0.0000    -0.000    -0.000    -0.000 -0.4430  0.8213 -0.3594
    23 C(13)  Bbb     0.0000     0.000     0.000     0.000  0.5286  0.5631  0.6353
              Bcc     0.0000     0.000     0.000     0.000  0.7241  0.0914 -0.6836
 
              Baa    -0.0000    -0.000    -0.000    -0.000  0.7211 -0.5240  0.4534
    24 H(1)   Bbb    -0.0000    -0.000    -0.000    -0.000 -0.4028  0.2154  0.8896
              Bcc     0.0000     0.000     0.000     0.000  0.5637  0.8241  0.0558
 
              Baa    -0.0000    -0.000    -0.000    -0.000  0.5684  0.8033 -0.1776
    25 H(1)   Bbb    -0.0000    -0.000    -0.000    -0.000  0.6223 -0.5610 -0.5458
              Bcc     0.0000     0.000     0.000     0.000  0.5381 -0.1997  0.8188
 
              Baa    -0.0000    -0.000    -0.000    -0.000 -0.6612 -0.0106  0.7501
    26 C(13)  Bbb     0.0000     0.000     0.000     0.000  0.6520 -0.5026  0.5677
              Bcc     0.0000     0.000     0.000     0.000  0.3710  0.8645  0.3392
 
              Baa    -0.0000    -0.000    -0.000    -0.000 -0.5935  0.7816 -0.1920
    27 H(1)   Bbb     0.0000     0.000     0.000     0.000 -0.5145 -0.1849  0.8373
              Bcc     0.0000     0.000     0.000     0.000  0.6190  0.5957  0.5118
 
              Baa    -0.0000    -0.000    -0.000    -0.000  0.6307  0.5858  0.5090
    28 H(1)   Bbb     0.0000     0.000     0.000     0.000 -0.6208 -0.0127  0.7839
              Bcc     0.0000     0.000     0.000     0.000 -0.4656  0.8104 -0.3556
 

 ---------------------------------------------------------------------------------

 No NMR shielding tensors so no spin-rotation constants.
 Leave Link  601 at Mon Aug  3 13:47:09 2020, MaxMem=  6442450944 cpu:               8.0 elap:               0.4
 (Enter /scratch/scicomp/CentOS/7.3.1611/Haswell/software/Gaussian/g16/l9999.exe)
 1\1\GINC-ATLAS-205\SP\UwB97XD\def2TZVP\C12H16\BOCHEN\03-Aug-2020\0\\#p
  uwb97xd guess=mix def2tzvp # scrf=(iefpcm,solvent=Cyclohexane,read) n
 osym 6d 10f\\endo-2 xp-pcm for eta=3\\0,1\C,0,-3.10656,-0.437378,0.291
 938\C,0,-0.848443,-0.283188,-1.412362\H,0,-4.00958,-0.509623,0.88693\H
 ,0,0.059937,-0.215575,-1.999027\C,0,1.250446,1.448137,0.910401\C,0,0.8
 48443,0.283188,1.412362\H,0,0.670918,2.349204,1.073365\H,0,-0.059937,0
 .215575,1.999027\C,0,1.671088,-0.961349,1.23751\H,0,2.316912,-1.067273
 ,2.119278\H,0,1.024124,-1.840049,1.224471\C,0,2.491494,1.537477,0.1388
 07\H,0,2.894509,2.517243,-0.088123\C,0,3.10656,0.437378,-0.291938\H,0,
 4.00958,0.509623,-0.88693\C,0,2.527393,-0.925952,-0.029998\H,0,1.91688
 6,-1.211409,-0.895423\H,0,3.321807,-1.671334,0.037592\C,0,-1.250446,-1
 .448137,-0.910401\H,0,-0.670918,-2.349204,-1.073365\C,0,-2.491494,-1.5
 37477,-0.138807\H,0,-2.894509,-2.517243,0.088123\C,0,-1.671088,0.96134
 9,-1.23751\H,0,-1.024124,1.840049,-1.224471\H,0,-2.316912,1.067273,-2.
 119278\C,0,-2.527393,0.925952,0.029998\H,0,-3.321807,1.671334,-0.03759
 2\H,0,-1.916886,1.211409,0.895423\\Version=ES64L-G16RevB.01\HF=-466.86
 03786\S2=0.\S2-1=0.\S2A=0.\RMSD=9.166e-09\Dipole=-0.0003599,0.0003015,
 0.0001477\Quadrupole=-0.0186098,2.4375421,-2.4189323,-2.3454566,-3.082
 4515,-1.2297714\PG=CI [X(C12H16)]\\@


 NATURE WILL TELL YOU A DIRECT LIE IF SHE CAN.

                                -- CHARLES DARWIN
 Job cpu time:       0 days  1 hours 57 minutes 55.5 seconds.
 Elapsed time:       0 days  0 hours  4 minutes 58.1 seconds.
 File lengths (MBytes):  RWF=    648 Int=      0 D2E=      0 Chk=     24 Scr=      1
 Normal termination of Gaussian 16 at Mon Aug  3 13:47:10 2020.
