 Entering Gaussian System, Link 0=g16
 Input=meso-TS_25_2_pcm.com
 Output=meso-TS_25_2_pcm.log
 Initial command:
 /scratch/scicomp/CentOS/7.3.1611/Haswell/software/Gaussian/g16/l1.exe "/scratch/bochen/cyclohexadiene-dimerization/wb97xd-def2tzvp/xp-pcm/meso/Gau-37230.inp" -scrdir="/scratch/bochen/cyclohexadiene-dimerization/wb97xd-def2tzvp/xp-pcm/meso/"
 Entering Link 1 = /scratch/scicomp/CentOS/7.3.1611/Haswell/software/Gaussian/g16/l1.exe PID=     37231.
  
 Copyright (c) 1988-2017, Gaussian, Inc.  All Rights Reserved.
  
 This is part of the Gaussian(R) 16 program.  It is based on
 the Gaussian(R) 09 system (copyright 2009, Gaussian, Inc.),
 the Gaussian(R) 03 system (copyright 2003, Gaussian, Inc.),
 the Gaussian(R) 98 system (copyright 1998, Gaussian, Inc.),
 the Gaussian(R) 94 system (copyright 1995, Gaussian, Inc.),
 the Gaussian 92(TM) system (copyright 1992, Gaussian, Inc.),
 the Gaussian 90(TM) system (copyright 1990, Gaussian, Inc.),
 the Gaussian 88(TM) system (copyright 1988, Gaussian, Inc.),
 the Gaussian 86(TM) system (copyright 1986, Carnegie Mellon
 University), and the Gaussian 82(TM) system (copyright 1983,
 Carnegie Mellon University). Gaussian is a federally registered
 trademark of Gaussian, Inc.
  
 This software contains proprietary and confidential information,
 including trade secrets, belonging to Gaussian, Inc.
  
 This software is provided under written license and may be
 used, copied, transmitted, or stored only in accord with that
 written license.
  
 The following legend is applicable only to US Government
 contracts under FAR:
  
                    RESTRICTED RIGHTS LEGEND
  
 Use, reproduction and disclosure by the US Government is
 subject to restrictions as set forth in subparagraphs (a)
 and (c) of the Commercial Computer Software - Restricted
 Rights clause in FAR 52.227-19.
  
 Gaussian, Inc.
 340 Quinnipiac St., Bldg. 40, Wallingford CT 06492
  
  
 ---------------------------------------------------------------
 Warning -- This program may not be used in any manner that
 competes with the business of Gaussian, Inc. or will provide
 assistance to any competitor of Gaussian, Inc.  The licensee
 of this program is prohibited from giving any competitor of
 Gaussian, Inc. access to this program.  By using this program,
 the user acknowledges that Gaussian, Inc. is engaged in the
 business of creating and licensing software in the field of
 computational chemistry and represents and warrants to the
 licensee that it is not a competitor of Gaussian, Inc. and that
 it will not use this program in any manner prohibited above.
 ---------------------------------------------------------------
  

 Cite this work as:
 Gaussian 16, Revision B.01,
 M. J. Frisch, G. W. Trucks, H. B. Schlegel, G. E. Scuseria, 
 M. A. Robb, J. R. Cheeseman, G. Scalmani, V. Barone, 
 G. A. Petersson, H. Nakatsuji, X. Li, M. Caricato, A. V. Marenich, 
 J. Bloino, B. G. Janesko, R. Gomperts, B. Mennucci, H. P. Hratchian, 
 J. V. Ortiz, A. F. Izmaylov, J. L. Sonnenberg, D. Williams-Young, 
 F. Ding, F. Lipparini, F. Egidi, J. Goings, B. Peng, A. Petrone, 
 T. Henderson, D. Ranasinghe, V. G. Zakrzewski, J. Gao, N. Rega, 
 G. Zheng, W. Liang, M. Hada, M. Ehara, K. Toyota, R. Fukuda, 
 J. Hasegawa, M. Ishida, T. Nakajima, Y. Honda, O. Kitao, H. Nakai, 
 T. Vreven, K. Throssell, J. A. Montgomery, Jr., J. E. Peralta, 
 F. Ogliaro, M. J. Bearpark, J. J. Heyd, E. N. Brothers, K. N. Kudin, 
 V. N. Staroverov, T. A. Keith, R. Kobayashi, J. Normand, 
 K. Raghavachari, A. P. Rendell, J. C. Burant, S. S. Iyengar, 
 J. Tomasi, M. Cossi, J. M. Millam, M. Klene, C. Adamo, R. Cammi, 
 J. W. Ochterski, R. L. Martin, K. Morokuma, O. Farkas, 
 J. B. Foresman, and D. J. Fox, Gaussian, Inc., Wallingford CT, 2016.
 
 ******************************************
 Gaussian 16:  ES64L-G16RevB.01 20-Dec-2017
                 3-Aug-2020 
 ******************************************
 %nproc=24
 Will use up to   24 processors via shared memory.
 %mem=48GB
 ----------------------------------------------------------------------
 #p uwb97xd guess=mix def2tzvp # scrf=(iefpcm,solvent=Cyclohexane,read)
  nosym 6d 10f
 ----------------------------------------------------------------------
 1/38=1,40=2,172=1/1;
 2/12=2,15=1,17=6,18=5,40=1/2;
 3/5=44,7=101,8=22,11=2,25=1,30=1,70=2203,72=17,74=-58,116=2/1,2,3;
 4/13=-1/1;
 5/5=2,38=5,53=17/2;
 6/7=2,8=2,9=2,10=2,28=1/1;
 99/5=1,9=1/99;
 Leave Link    1 at Mon Aug  3 15:26:44 2020, MaxMem=  6442450944 cpu:               1.6 elap:               0.1
 (Enter /scratch/scicomp/CentOS/7.3.1611/Haswell/software/Gaussian/g16/l101.exe)
 -----------------------
 endo-2 xp-pcm for eta=3
 -----------------------
 Symbolic Z-matrix:
 Charge =  0 Multiplicity = 1
 6                    -3.12259  -0.43839   0.24911 
 6                    -0.6218   -0.22272  -1.06094 
 1                    -4.08532  -0.54721   0.73502 
 1                     0.34928  -0.12863  -1.52714 
 6                     1.1043    1.41273   0.71153 
 6                     0.6218    0.22272   1.06094 
 1                     0.51626   2.31205   0.8443 
 1                    -0.34928   0.12863   1.52714 
 6                     1.4894   -1.001     1.01977 
 1                     1.9618   -1.06585   2.00807 
 1                     0.88901  -1.90293   0.91447 
 6                     2.42836   1.51914   0.10794 
 1                     2.83616   2.5068   -0.07181 
 6                     3.12259   0.43839  -0.24911 
 1                     4.08532   0.54721  -0.73502 
 6                     2.58944  -0.95353  -0.0453 
 1                     2.22687  -1.33938  -1.00611 
 1                     3.40096  -1.62307   0.24731 
 6                    -1.1043   -1.41273  -0.71153 
 1                    -0.51626  -2.31205  -0.8443 
 6                    -2.42836  -1.51914  -0.10794 
 1                    -2.83616  -2.5068    0.07181 
 6                    -1.4894    1.001    -1.01977 
 1                    -0.88901   1.90293  -0.91447 
 1                    -1.9618    1.06585  -2.00807 
 6                    -2.58944   0.95353   0.0453 
 1                    -3.40096   1.62307  -0.24731 
 1                    -2.22687   1.33938   1.00611 
 
 ITRead=  0  0  0  0  0  0  0  0  0  0  0  0  0  0  0  0  0  0  0  0
 ITRead=  0  0  0  0  0  0  0  0
 MicOpt= -1 -1 -1 -1 -1 -1 -1 -1 -1 -1 -1 -1 -1 -1 -1 -1 -1 -1 -1 -1
 MicOpt= -1 -1 -1 -1 -1 -1 -1 -1
 NAtoms=     28 NQM=       28 NQMF=       0 NMMI=      0 NMMIF=      0
                NMic=       0 NMicF=      0.
                    Isotopes and Nuclear Properties:
 (Nuclear quadrupole moments (NQMom) in fm**2, nuclear magnetic moments (NMagM)
  in nuclear magnetons)

  Atom         1           2           3           4           5           6           7           8           9          10
 IAtWgt=          12          12           1           1          12          12           1           1          12           1
 AtmWgt=  12.0000000  12.0000000   1.0078250   1.0078250  12.0000000  12.0000000   1.0078250   1.0078250  12.0000000   1.0078250
 NucSpn=           0           0           1           1           0           0           1           1           0           1
 AtZEff=  -0.0000000  -0.0000000  -0.0000000  -0.0000000  -0.0000000  -0.0000000  -0.0000000  -0.0000000  -0.0000000  -0.0000000
 NQMom=    0.0000000   0.0000000   0.0000000   0.0000000   0.0000000   0.0000000   0.0000000   0.0000000   0.0000000   0.0000000
 NMagM=    0.0000000   0.0000000   2.7928460   2.7928460   0.0000000   0.0000000   2.7928460   2.7928460   0.0000000   2.7928460
 AtZNuc=   6.0000000   6.0000000   1.0000000   1.0000000   6.0000000   6.0000000   1.0000000   1.0000000   6.0000000   1.0000000

  Atom        11          12          13          14          15          16          17          18          19          20
 IAtWgt=           1          12           1          12           1          12           1           1          12           1
 AtmWgt=   1.0078250  12.0000000   1.0078250  12.0000000   1.0078250  12.0000000   1.0078250   1.0078250  12.0000000   1.0078250
 NucSpn=           1           0           1           0           1           0           1           1           0           1
 AtZEff=  -0.0000000  -0.0000000  -0.0000000  -0.0000000  -0.0000000  -0.0000000  -0.0000000  -0.0000000  -0.0000000  -0.0000000
 NQMom=    0.0000000   0.0000000   0.0000000   0.0000000   0.0000000   0.0000000   0.0000000   0.0000000   0.0000000   0.0000000
 NMagM=    2.7928460   0.0000000   2.7928460   0.0000000   2.7928460   0.0000000   2.7928460   2.7928460   0.0000000   2.7928460
 AtZNuc=   1.0000000   6.0000000   1.0000000   6.0000000   1.0000000   6.0000000   1.0000000   1.0000000   6.0000000   1.0000000

  Atom        21          22          23          24          25          26          27          28
 IAtWgt=          12           1          12           1           1          12           1           1
 AtmWgt=  12.0000000   1.0078250  12.0000000   1.0078250   1.0078250  12.0000000   1.0078250   1.0078250
 NucSpn=           0           1           0           1           1           0           1           1
 AtZEff=  -0.0000000  -0.0000000  -0.0000000  -0.0000000  -0.0000000  -0.0000000  -0.0000000  -0.0000000
 NQMom=    0.0000000   0.0000000   0.0000000   0.0000000   0.0000000   0.0000000   0.0000000   0.0000000
 NMagM=    0.0000000   2.7928460   0.0000000   2.7928460   2.7928460   0.0000000   2.7928460   2.7928460
 AtZNuc=   6.0000000   1.0000000   6.0000000   1.0000000   1.0000000   6.0000000   1.0000000   1.0000000
 Leave Link  101 at Mon Aug  3 15:26:44 2020, MaxMem=  6442450944 cpu:               2.4 elap:               0.1
 (Enter /scratch/scicomp/CentOS/7.3.1611/Haswell/software/Gaussian/g16/l202.exe)
                          Input orientation:                          
 ---------------------------------------------------------------------
 Center     Atomic      Atomic             Coordinates (Angstroms)
 Number     Number       Type             X           Y           Z
 ---------------------------------------------------------------------
      1          6           0       -3.122592   -0.438388    0.249109
      2          6           0       -0.621801   -0.222716   -1.060943
      3          1           0       -4.085324   -0.547212    0.735016
      4          1           0        0.349284   -0.128633   -1.527138
      5          6           0        1.104299    1.412726    0.711533
      6          6           0        0.621801    0.222716    1.060943
      7          1           0        0.516259    2.312051    0.844298
      8          1           0       -0.349284    0.128633    1.527138
      9          6           0        1.489396   -1.000996    1.019772
     10          1           0        1.961797   -1.065850    2.008075
     11          1           0        0.889010   -1.902931    0.914465
     12          6           0        2.428355    1.519137    0.107940
     13          1           0        2.836160    2.506797   -0.071809
     14          6           0        3.122592    0.438388   -0.249109
     15          1           0        4.085324    0.547212   -0.735016
     16          6           0        2.589439   -0.953530   -0.045302
     17          1           0        2.226867   -1.339383   -1.006111
     18          1           0        3.400958   -1.623074    0.247309
     19          6           0       -1.104299   -1.412726   -0.711533
     20          1           0       -0.516259   -2.312051   -0.844298
     21          6           0       -2.428355   -1.519137   -0.107940
     22          1           0       -2.836160   -2.506797    0.071809
     23          6           0       -1.489396    1.000996   -1.019772
     24          1           0       -0.889010    1.902931   -0.914465
     25          1           0       -1.961797    1.065850   -2.008075
     26          6           0       -2.589439    0.953530    0.045302
     27          1           0       -3.400958    1.623074   -0.247309
     28          1           0       -2.226867    1.339383    1.006111
 ---------------------------------------------------------------------
                    Distance matrix (angstroms):
                    1          2          3          4          5
     1  C    0.000000
     2  C    2.831379   0.000000
     3  H    1.083882   3.914940   0.000000
     4  H    3.912151   1.081293   4.995828   0.000000
     5  C    4.637571   2.965765   5.547440   2.820901   0.000000
     6  C    3.888009   2.499471   4.780799   2.626000   1.330795
     7  H    4.600044   3.369001   5.418662   3.407129   1.082683
     8  H    3.105818   2.626000   3.878430   3.143690   2.104046
     9  C    4.709658   3.064677   5.600403   2.923632   2.463608
    10  H    5.416519   4.099357   6.201398   3.997037   2.925690
    11  H    4.322098   3.001318   5.158893   3.066083   3.328830
    12  C    5.887686   3.701863   6.862291   3.116274   1.459031
    13  H    6.654610   4.515099   7.608211   3.904872   2.193162
    14  C    6.326079   3.888009   7.341251   3.105818   2.438375
    15  H    7.341251   4.780799   8.373664   3.878430   3.424636
    16  C    5.742765   3.446401   6.732492   2.809731   2.894410
    17  H    5.568131   3.060206   6.595666   2.294058   3.432865
    18  H    6.630248   4.455908   7.578902   3.833371   3.834870
    19  C    2.438375   1.330795   3.424636   2.104046   3.858264
    20  H    3.391036   2.103187   4.283353   2.445966   4.349803
    21  C    1.333217   2.419206   2.097799   3.415099   4.663368
    22  H    2.095661   3.376913   2.416656   4.284781   5.594562
    23  C    2.519765   1.500629   3.495007   2.216805   3.145504
    24  H    3.438687   2.147378   4.352058   2.456826   2.618674
    25  H    2.950433   2.086397   3.825687   2.645597   4.113093
    26  C    1.504402   2.545375   2.228363   3.504246   3.781326
    27  H    2.138585   3.434043   2.478601   4.332523   4.610961
    28  H    2.129752   3.047803   2.662066   3.899869   3.344970
                    6          7          8          9         10
     6  C    0.000000
     7  H    2.103187   0.000000
     8  H    1.081293   2.445966   0.000000
     9  C    1.500629   3.457465   2.216805   0.000000
    10  H    2.086397   3.854111   2.645597   1.097320   0.000000
    11  H    2.147378   4.232014   2.456826   1.088595   1.745726
    12  C    2.419206   2.197054   3.415099   2.839745   3.241967
    13  H    3.376913   2.501823   4.284781   3.912791   4.225427
    14  C    2.831379   3.391036   3.912151   2.519765   2.950433
    15  H    3.914940   4.283353   4.995828   3.495007   3.825687
    16  C    2.545375   3.969066   3.504246   1.531904   2.150095
    17  H    3.047803   4.436571   3.899869   2.182332   3.038157
    18  H    3.434043   4.915597   4.332523   2.153543   2.341363
    19  C    2.965765   4.349803   2.820901   3.145504   4.113093
    20  H    3.369001   5.029888   3.407129   3.035832   3.978669
    21  C    3.701863   4.924988   3.116274   4.109620   4.894530
    22  H    4.515099   5.920874   3.904872   4.677233   5.370833
    23  C    3.064677   3.035832   2.923632   4.128064   5.034922
    24  H    3.001318   2.288101   3.066083   4.222663   5.047970
    25  H    4.099357   3.978669   3.997037   5.034922   6.005680
    26  C    3.446401   3.482719   2.809731   4.626733   5.352020
    27  H    4.455908   4.124425   3.833371   5.692697   6.409073
    28  H    3.060206   2.914963   2.294058   4.391830   4.932949
                   11         12         13         14         15
    11  H    0.000000
    12  C    3.838048   0.000000
    13  H    4.920349   1.083553   0.000000
    14  C    3.438687   1.333217   2.095661   0.000000
    15  H    4.352058   2.097799   2.416656   1.083882   0.000000
    16  C    2.171169   2.482642   3.469213   1.504402   2.228363
    17  H    2.407501   3.074548   4.004655   2.129752   2.662066
    18  H    2.614058   3.292244   4.180510   2.138585   2.478601
    19  C    2.618674   4.663368   5.594562   4.637571   5.547440
    20  H    2.288101   4.924988   5.920874   4.600044   5.418662
    21  C    3.492495   5.732830   6.627561   5.887686   6.862291
    22  H    3.866732   6.627561   7.571787   6.654610   7.608211
    23  C    4.222663   4.109620   4.677233   4.709658   5.600403
    24  H    4.581585   3.492495   3.866732   4.322098   5.158893
    25  H    5.047970   4.894530   5.370833   5.416519   6.201398
    26  C    4.584149   5.049960   5.644774   5.742765   6.732492
    27  H    5.673293   5.841053   6.301857   6.630248   7.578902
    28  H    4.497743   4.744483   5.306506   5.568131   6.595666
                   16         17         18         19         20
    16  C    0.000000
    17  H    1.097039   0.000000
    18  H    1.092004   1.740699   0.000000
    19  C    3.781326   3.344970   4.610961   0.000000
    20  H    3.482719   2.914963   4.124425   1.082683   0.000000
    21  C    5.049960   4.744483   5.841053   1.459031   2.197054
    22  H    5.644774   5.306506   6.301857   2.193162   2.501823
    23  C    4.626733   4.391830   5.692697   2.463608   3.457465
    24  H    4.584149   4.497743   5.673293   3.328830   4.232014
    25  H    5.352020   4.932949   6.409073   2.925690   3.854111
    26  C    5.519589   5.436885   6.524151   2.894410   3.969066
    27  H    6.524151   6.405025   7.553025   3.834870   4.915597
    28  H    5.436885   5.573201   6.405025   3.432865   4.436571
                   21         22         23         24         25
    21  C    0.000000
    22  H    1.083553   0.000000
    23  C    2.839745   3.912791   0.000000
    24  H    3.838048   4.920349   1.088595   0.000000
    25  H    3.241967   4.225427   1.097320   1.745726   0.000000
    26  C    2.482642   3.469213   1.531904   2.171169   2.150095
    27  H    3.292244   4.180510   2.153543   2.614058   2.341363
    28  H    3.074548   4.004655   2.182332   2.407501   3.038157
                   26         27         28
    26  C    0.000000
    27  H    1.092004   0.000000
    28  H    1.097039   1.740699   0.000000
 Symmetry turned off by external request.
 Stoichiometry    C12H16
 Framework group  CI[X(C12H16)]
 Deg. of freedom    39
 Full point group                 CI      NOp   2
 Rotational constants (GHZ):           1.8700670           0.6206596           0.5469464
 Leave Link  202 at Mon Aug  3 15:26:45 2020, MaxMem=  6442450944 cpu:               0.3 elap:               0.0
 (Enter /scratch/scicomp/CentOS/7.3.1611/Haswell/software/Gaussian/g16/l301.exe)
 Standard basis: def2TZVP (6D, 10F)
 Ernie: Thresh=  0.10000D-02 Tol=  0.10000D-05 Strict=F.
   528 basis functions,   740 primitive gaussians,   528 cartesian basis functions
    44 alpha electrons       44 beta electrons
       nuclear repulsion energy       685.9079802724 Hartrees.
 IExCor= 4639 DFT=T Ex+Corr=wB97XD ExCW=0 ScaHFX=  1.000000
 ScaDFX=  1.000000  1.000000  1.000000  1.000000 ScalE2=  1.000000  1.000000
 IRadAn=      5 IRanWt=     -1 IRanGd=            0 ICorTp=0 IEmpDi=121
 HFx  wShort=  0.000000 wLong=  0.200000 cFull=  0.222036 cShort=  0.000000 cLong=  0.777964
 DFx  wShort=  0.000000 wLong=  0.200000 cFull=  0.000000 cShort=  0.000000 cLong=  1.000000
 NAtoms=   28 NActive=   28 NUniq=   28 SFac= 1.00D+00 NAtFMM=   60 NAOKFM=F Big=F
 Integral buffers will be    131072 words long.
 Raffenetti 2 integral format.
 Two-electron integral symmetry is turned off.
 R6Disp:  Grimme-D2 Dispersion energy=       -0.0229309712 Hartrees.
 Nuclear repulsion after empirical dispersion term =      685.8850493012 Hartrees.
 Using the following non-standard input for PCM:
 norep pcmdoc geomview  nodis nocav g03defaults tsare=0.075
 Warning! Using old PCM defaults because the g03defaults keyword was found.
 These settings can be overridden by following keywords.
 nsfe=28
 NVESolv=36  SolvMW=84.1595   Rsolv=2.815
 eps=2.0165 RhoS=0.7781
 --- end of non-standard input.
 Reading user-defined spheres from input:
 ISph  on   Nord    Re0     Alpha      Xe            Ye            Ze
 --- end of user-defined spheres data.
 ------------------------------------------------------------------------------
 Polarizable Continuum Model (PCM)
 =================================
 Model                : PCM.
 Atomic radii         : UA0 (Simple United Atom Topological Model).
 Polarization charges : Total charges.
 Charge compensation  : None.
 Solution method      : On-the-fly selection.
 Cavity type          : SES (Solvent Excluding Surface) (Alpha=1.000).
 Cavity algorithm     : GePol (RMin=0.200 OFac=0.890).
                        User-defined sphere list used, NSphG=   28.
                        Tesserae with average area of 0.075 Ang**2.
                        Smoothing algorithm: None.
                        Polarization charges: point-like.
                        Self-potential: constant (ISelfS= 1).
                        Self-field    : global E.n sum rule (ISelfD= 3).
 Solvent              : CycloHexane, Eps=   2.016500 Eps(inf)=   2.035188
                        RSolv=   2.815000 Ang.
 ------------------------------------------------------------------------------
 GePol: Number of generator spheres                  =      28
 GePol: Total number of spheres                      =     170
 GePol: Number of exposed spheres                    =     122 ( 71.76%)
 GePol: Number of tesserae                           =    4596
 GePol: Average area of tesserae                     =       0.05 Ang**2
 GePol: Minimum area of tessera                      =   0.10D-02 Ang**2
 GePol: Maximum area of tessera                      =    0.12515 Ang**2
 GePol: Number of small tesserae                     =       0
 GePol: Fraction of small tesserae (<1% of avg)      =       0.00%
 GePol: Total count of vertices                      =   16247
 GePol: Maximum number of vertices in a tessera      =       8
 GePol: Cavity surface area                          =    219.273 Ang**2
 GePol: Cavity volume                                =    247.297 Ang**3
 Leave Link  301 at Mon Aug  3 15:26:45 2020, MaxMem=  6442450944 cpu:               7.1 elap:               0.3
 (Enter /scratch/scicomp/CentOS/7.3.1611/Haswell/software/Gaussian/g16/l302.exe)
 NPDir=0 NMtPBC=     1 NCelOv=     1 NCel=       1 NClECP=     1 NCelD=      1
         NCelK=      1 NCelE2=     1 NClLst=     1 CellRange=     0.0.
 One-electron integrals computed using PRISM.
   1 Symmetry operations used in ECPInt.
 ECPInt:  NShTT=   19306 NPrTT=   56928 LenC2=   18508 LenP2D=   42134.
 LDataN:  DoStor=T MaxTD1= 6 Len=  172
 NBasis=   528 RedAO= T EigKep=  1.81D-05  NBF=   528
 NBsUse=   528 1.00D-06 EigRej= -1.00D+00 NBFU=   528
 Precomputing XC quadrature grid using
 IXCGrd= 4 IRadAn=           5 IRanWt=          -1 IRanGd=           0 AccXCQ= 0.00D+00.
 Generated NRdTot=       0 NPtTot=           0 NUsed=           0 NTot=          32
 NSgBfM=   526   526   526   526   526 MxSgAt=    28 MxSgA2=    28.
 Leave Link  302 at Mon Aug  3 15:26:46 2020, MaxMem=  6442450944 cpu:              12.7 elap:               0.6
 (Enter /scratch/scicomp/CentOS/7.3.1611/Haswell/software/Gaussian/g16/l303.exe)
 DipDrv:  MaxL=1.
 Leave Link  303 at Mon Aug  3 15:26:46 2020, MaxMem=  6442450944 cpu:               1.5 elap:               0.1
 (Enter /scratch/scicomp/CentOS/7.3.1611/Haswell/software/Gaussian/g16/l401.exe)
 ExpMin= 9.52D-02 ExpMax= 1.36D+04 ExpMxC= 4.63D+02 IAcc=3 IRadAn=         5 AccDes= 0.00D+00
 Harris functional with IExCor= 4639 and IRadAn=       5 diagonalized for initial guess.
 HarFok:  IExCor= 4639 AccDes= 0.00D+00 IRadAn=         5 IDoV= 1 UseB2=F ITyADJ=14
 ICtDFT=  3500011 ScaDFX=  1.000000  1.000000  1.000000  1.000000
 FoFCou: FMM=F IPFlag=           0 FMFlag=      100000 FMFlg1=           0
         NFxFlg=           0 DoJE=T BraDBF=F KetDBF=T FulRan=T
         wScrn=  0.000000 ICntrl=       500 IOpCl=  0 I1Cent=   200000004 NGrid=           0
         NMat0=    1 NMatS0=      1 NMatT0=    0 NMatD0=    1 NMtDS0=    0 NMtDT0=    0
 Symmetry not used in FoFCou.
 Harris En= -444.640525448281    
 JPrj=0 DoOrth=F DoCkMO=T.
 Mixing orbitals, IMix= 1 IMixAn=  0 NRI=1 NE=   44 Coef=  7.07106781D-01  7.07106781D-01
 Mixing orbitals, IMix= 1 IMixAn=  0 NRI=1 NE=   44 Coef= -7.07106781D-01  7.07106781D-01
 Initial guess <Sx>= 0.0000 <Sy>= 0.0000 <Sz>= 0.0000 <S**2>= 1.0000 S= 0.6180
 Leave Link  401 at Mon Aug  3 15:26:48 2020, MaxMem=  6442450944 cpu:              49.0 elap:               2.1
 (Enter /scratch/scicomp/CentOS/7.3.1611/Haswell/software/Gaussian/g16/l502.exe)
 Two-electron integral symmetry not used.
 UHF open shell SCF:
 Using DIIS extrapolation, IDIIS=  1040.
 NGot=  6442450944 LenX=  6441877030 LenY=  6441597718
 Requested convergence on RMS density matrix=1.00D-08 within 128 cycles.
 Requested convergence on MAX density matrix=1.00D-06.
 Requested convergence on             energy=1.00D-06.
 No special actions if energy rises.
 Fock matrices will be formed incrementally for  20 cycles.

 Cycle   1  Pass 1  IDiag  1:
 FoFJK:  IHMeth= 1 ICntrl=       0 DoSepK=T KAlg= 0 I1Cent=           0 FoldK=F
 IRaf=         1 NMat=       1 IRICut=       1 DoRegI=T DoRafI=F ISym2E= 0 IDoP0=0 IntGTp=1.
 FoFCou: FMM=F IPFlag=           0 FMFlag=      100000 FMFlg1=           0
         NFxFlg=           0 DoJE=T BraDBF=F KetDBF=F FulRan=T
         wScrn=  0.000000 ICntrl=       500 IOpCl=  0 I1Cent=           0 NGrid=           0
         NMat0=    1 NMatS0=      1 NMatT0=    0 NMatD0=    1 NMtDS0=    0 NMtDT0=    0
 Symmetry not used in FoFCou.
 Inv3:  Mode=1 IEnd=    63369648.
 Iteration    1 A*A^-1 deviation from unit magnitude is 3.77D-15 for   2529.
 Iteration    1 A*A^-1 deviation from orthogonality  is 2.44D-15 for   2357   1572.
 Iteration    1 A^-1*A deviation from unit magnitude is 3.55D-15 for    591.
 Iteration    1 A^-1*A deviation from orthogonality  is 1.92D-15 for    726    696.
 E= -466.589949362366    
 DIIS: error= 5.79D-02 at cycle   1 NSaved=   1.
 NSaved= 1 IEnMin= 1 EnMin= -466.589949362366     IErMin= 1 ErrMin= 5.79D-02
 ErrMax= 5.79D-02  0.00D+00 EMaxC= 1.00D-01 BMatC= 4.11D+00 BMatP= 4.11D+00
 IDIUse=3 WtCom= 4.21D-01 WtEn= 5.79D-01
 Coeff-Com:  0.100D+01
 Coeff-En:   0.100D+01
 Coeff:      0.100D+01
 Gap=     0.188 Goal=   None    Shift=    0.000
 Gap=     0.188 Goal=   None    Shift=    0.000
 GapD=    0.188 DampG=1.000 DampE=0.500 DampFc=0.5000 IDamp=-1.
 Damping current iteration by 5.00D-01
 RMSDP=1.61D-03 MaxDP=9.20D-02              OVMax= 3.07D-01

 Cycle   2  Pass 1  IDiag  1:
 RMSU=  7.76D-04    CP:  9.68D-01
 E= -466.692183418447     Delta-E=       -0.102234056081 Rises=F Damp=T
 DIIS: error= 2.75D-02 at cycle   2 NSaved=   2.
 NSaved= 2 IEnMin= 2 EnMin= -466.692183418447     IErMin= 2 ErrMin= 2.75D-02
 ErrMax= 2.75D-02  0.00D+00 EMaxC= 1.00D-01 BMatC= 9.32D-01 BMatP= 4.11D+00
 IDIUse=3 WtCom= 7.25D-01 WtEn= 2.75D-01
 Coeff-Com: -0.866D+00 0.187D+01
 Coeff-En:   0.000D+00 0.100D+01
 Coeff:     -0.628D+00 0.163D+01
 Gap=     0.261 Goal=   None    Shift=    0.000
 Gap=     0.261 Goal=   None    Shift=    0.000
 RMSDP=1.14D-03 MaxDP=4.87D-02 DE=-1.02D-01 OVMax= 1.33D-01

 Cycle   3  Pass 1  IDiag  1:
 RMSU=  6.41D-04    CP:  9.21D-01  2.15D+00
 E= -466.822436943226     Delta-E=       -0.130253524780 Rises=F Damp=F
 DIIS: error= 7.54D-03 at cycle   3 NSaved=   3.
 NSaved= 3 IEnMin= 3 EnMin= -466.822436943226     IErMin= 3 ErrMin= 7.54D-03
 ErrMax= 7.54D-03  0.00D+00 EMaxC= 1.00D-01 BMatC= 2.35D-02 BMatP= 9.32D-01
 IDIUse=3 WtCom= 9.25D-01 WtEn= 7.54D-02
 Coeff-Com: -0.313D+00 0.673D+00 0.640D+00
 Coeff-En:   0.000D+00 0.000D+00 0.100D+01
 Coeff:     -0.289D+00 0.622D+00 0.667D+00
 Gap=     0.280 Goal=   None    Shift=    0.000
 Gap=     0.280 Goal=   None    Shift=    0.000
 RMSDP=2.43D-04 MaxDP=1.25D-02 DE=-1.30D-01 OVMax= 6.78D-02

 Cycle   4  Pass 1  IDiag  1:
 RMSU=  2.21D-04    CP:  9.12D-01  2.26D+00  9.85D-01
 E= -466.833470758434     Delta-E=       -0.011033815207 Rises=F Damp=F
 DIIS: error= 5.17D-03 at cycle   4 NSaved=   4.
 NSaved= 4 IEnMin= 4 EnMin= -466.833470758434     IErMin= 4 ErrMin= 5.17D-03
 ErrMax= 5.17D-03  0.00D+00 EMaxC= 1.00D-01 BMatC= 2.20D-03 BMatP= 2.35D-02
 IDIUse=3 WtCom= 9.48D-01 WtEn= 5.17D-02
 Coeff-Com:  0.116D+00-0.249D+00-0.461D-01 0.118D+01
 Coeff-En:   0.000D+00 0.000D+00 0.000D+00 0.100D+01
 Coeff:      0.110D+00-0.236D+00-0.437D-01 0.117D+01
 Gap=     0.291 Goal=   None    Shift=    0.000
 Gap=     0.291 Goal=   None    Shift=    0.000
 RMSDP=2.31D-04 MaxDP=9.67D-03 DE=-1.10D-02 OVMax= 8.05D-02

 Cycle   5  Pass 1  IDiag  1:
 RMSU=  9.55D-05    CP:  9.05D-01  2.32D+00  1.21D+00  1.62D+00
 E= -466.838540420285     Delta-E=       -0.005069661851 Rises=F Damp=F
 DIIS: error= 2.76D-03 at cycle   5 NSaved=   5.
 NSaved= 5 IEnMin= 5 EnMin= -466.838540420285     IErMin= 5 ErrMin= 2.76D-03
 ErrMax= 2.76D-03  0.00D+00 EMaxC= 1.00D-01 BMatC= 1.10D-03 BMatP= 2.20D-03
 IDIUse=3 WtCom= 9.72D-01 WtEn= 2.76D-02
 Coeff-Com:  0.861D-01-0.185D+00-0.106D+00 0.477D+00 0.728D+00
 Coeff-En:   0.000D+00 0.000D+00 0.000D+00 0.000D+00 0.100D+01
 Coeff:      0.837D-01-0.180D+00-0.103D+00 0.464D+00 0.735D+00
 Gap=     0.295 Goal=   None    Shift=    0.000
 Gap=     0.295 Goal=   None    Shift=    0.000
 RMSDP=1.00D-04 MaxDP=4.58D-03 DE=-5.07D-03 OVMax= 3.60D-02

 Cycle   6  Pass 1  IDiag  1:
 RMSU=  3.66D-05    CP:  9.03D-01  2.33D+00  1.27D+00  1.96D+00  1.41D+00
 E= -466.840264208263     Delta-E=       -0.001723787979 Rises=F Damp=F
 DIIS: error= 1.91D-03 at cycle   6 NSaved=   6.
 NSaved= 6 IEnMin= 6 EnMin= -466.840264208263     IErMin= 6 ErrMin= 1.91D-03
 ErrMax= 1.91D-03  0.00D+00 EMaxC= 1.00D-01 BMatC= 5.64D-04 BMatP= 1.10D-03
 IDIUse=3 WtCom= 9.81D-01 WtEn= 1.91D-02
 Coeff-Com: -0.653D-01 0.140D+00 0.567D-01-0.475D+00-0.110D-01 0.135D+01
 Coeff-En:   0.000D+00 0.000D+00 0.000D+00 0.000D+00 0.000D+00 0.100D+01
 Coeff:     -0.641D-01 0.138D+00 0.556D-01-0.466D+00-0.108D-01 0.135D+01
 Gap=     0.291 Goal=   None    Shift=    0.000
 Gap=     0.291 Goal=   None    Shift=    0.000
 RMSDP=1.12D-04 MaxDP=4.06D-03 DE=-1.72D-03 OVMax= 4.18D-02

 Cycle   7  Pass 1  IDiag  1:
 RMSU=  3.29D-05    CP:  9.00D-01  2.33D+00  1.31D+00  2.27D+00  2.09D+00
                    CP:  2.02D+00
 E= -466.841989894648     Delta-E=       -0.001725686384 Rises=F Damp=F
 DIIS: error= 1.31D-03 at cycle   7 NSaved=   7.
 NSaved= 7 IEnMin= 7 EnMin= -466.841989894648     IErMin= 7 ErrMin= 1.31D-03
 ErrMax= 1.31D-03  0.00D+00 EMaxC= 1.00D-01 BMatC= 3.21D-04 BMatP= 5.64D-04
 IDIUse=3 WtCom= 9.87D-01 WtEn= 1.31D-02
 Coeff-Com: -0.228D-01 0.497D-01 0.489D-01 0.514D-01-0.525D+00-0.915D+00
 Coeff-Com:  0.231D+01
 Coeff-En:   0.000D+00 0.000D+00 0.000D+00 0.000D+00 0.000D+00 0.000D+00
 Coeff-En:   0.100D+01
 Coeff:     -0.225D-01 0.490D-01 0.482D-01 0.507D-01-0.518D+00-0.903D+00
 Coeff:      0.230D+01
 Gap=     0.290 Goal=   None    Shift=    0.000
 Gap=     0.290 Goal=   None    Shift=    0.000
 RMSDP=1.56D-04 MaxDP=7.16D-03 DE=-1.73D-03 OVMax= 6.00D-02

 Cycle   8  Pass 1  IDiag  1:
 RMSU=  4.33D-05    CP:  8.97D-01  2.33D+00  1.35D+00  2.63D+00  2.99D+00
                    CP:  3.00D+00  2.87D+00
 E= -466.843747383939     Delta-E=       -0.001757489291 Rises=F Damp=F
 DIIS: error= 6.13D-04 at cycle   8 NSaved=   8.
 NSaved= 8 IEnMin= 8 EnMin= -466.843747383939     IErMin= 8 ErrMin= 6.13D-04
 ErrMax= 6.13D-04  0.00D+00 EMaxC= 1.00D-01 BMatC= 1.15D-04 BMatP= 3.21D-04
 IDIUse=3 WtCom= 9.94D-01 WtEn= 6.13D-03
 Coeff-Com:  0.330D-01-0.711D-01-0.153D-01 0.345D+00-0.152D+00-0.116D+01
 Coeff-Com:  0.767D+00 0.125D+01
 Coeff-En:   0.000D+00 0.000D+00 0.000D+00 0.000D+00 0.000D+00 0.000D+00
 Coeff-En:   0.000D+00 0.100D+01
 Coeff:      0.328D-01-0.706D-01-0.152D-01 0.343D+00-0.151D+00-0.115D+01
 Coeff:      0.762D+00 0.125D+01
 Gap=     0.292 Goal=   None    Shift=    0.000
 Gap=     0.292 Goal=   None    Shift=    0.000
 RMSDP=1.06D-04 MaxDP=5.02D-03 DE=-1.76D-03 OVMax= 4.11D-02

 Cycle   9  Pass 1  IDiag  1:
 RMSU=  7.06D-05    CP:  8.95D-01  2.33D+00  1.38D+00  2.83D+00  3.00D+00
                    CP:  3.00D+00  3.00D+00  2.31D+00
 E= -466.844331662634     Delta-E=       -0.000584278696 Rises=F Damp=F
 DIIS: error= 2.44D-04 at cycle   9 NSaved=   9.
 NSaved= 9 IEnMin= 9 EnMin= -466.844331662634     IErMin= 9 ErrMin= 2.44D-04
 ErrMax= 2.44D-04  0.00D+00 EMaxC= 1.00D-01 BMatC= 2.81D-05 BMatP= 1.15D-04
 IDIUse=3 WtCom= 9.98D-01 WtEn= 2.44D-03
 Coeff-Com:  0.230D-01-0.496D-01-0.195D-01 0.164D+00 0.518D-01-0.344D+00
 Coeff-Com: -0.177D+00 0.523D+00 0.828D+00
 Coeff-En:   0.000D+00 0.000D+00 0.000D+00 0.000D+00 0.000D+00 0.000D+00
 Coeff-En:   0.000D+00 0.000D+00 0.100D+01
 Coeff:      0.230D-01-0.495D-01-0.195D-01 0.164D+00 0.517D-01-0.344D+00
 Coeff:     -0.176D+00 0.522D+00 0.828D+00
 Gap=     0.292 Goal=   None    Shift=    0.000
 Gap=     0.292 Goal=   None    Shift=    0.000
 RMSDP=3.54D-05 MaxDP=1.76D-03 DE=-5.84D-04 OVMax= 1.39D-02

 Cycle  10  Pass 1  IDiag  1:
 RMSU=  7.63D-06    CP:  8.94D-01  2.33D+00  1.39D+00  2.89D+00  3.00D+00
                    CP:  3.00D+00  3.00D+00  2.78D+00  1.34D+00
 E= -466.844410270710     Delta-E=       -0.000078608075 Rises=F Damp=F
 DIIS: error= 1.18D-04 at cycle  10 NSaved=  10.
 NSaved=10 IEnMin=10 EnMin= -466.844410270710     IErMin=10 ErrMin= 1.18D-04
 ErrMax= 1.18D-04  0.00D+00 EMaxC= 1.00D-01 BMatC= 4.22D-06 BMatP= 2.81D-05
 IDIUse=3 WtCom= 9.99D-01 WtEn= 1.18D-03
 Coeff-Com: -0.149D-02 0.325D-02-0.108D-02-0.372D-01 0.355D-01 0.163D+00
 Coeff-Com: -0.163D+00-0.232D+00 0.859D-01 0.115D+01
 Coeff-En:   0.000D+00 0.000D+00 0.000D+00 0.000D+00 0.000D+00 0.000D+00
 Coeff-En:   0.000D+00 0.000D+00 0.000D+00 0.100D+01
 Coeff:     -0.148D-02 0.325D-02-0.108D-02-0.371D-01 0.355D-01 0.162D+00
 Coeff:     -0.163D+00-0.232D+00 0.858D-01 0.115D+01
 Gap=     0.291 Goal=   None    Shift=    0.000
 Gap=     0.291 Goal=   None    Shift=    0.000
 RMSDP=2.05D-05 MaxDP=9.05D-04 DE=-7.86D-05 OVMax= 8.21D-03

 Cycle  11  Pass 1  IDiag  1:
 RMSU=  4.74D-06    CP:  8.94D-01  2.33D+00  1.40D+00  2.92D+00  3.00D+00
                    CP:  3.00D+00  3.00D+00  3.00D+00  1.52D+00  1.63D+00
 E= -466.844426048979     Delta-E=       -0.000015778269 Rises=F Damp=F
 DIIS: error= 3.30D-05 at cycle  11 NSaved=  11.
 NSaved=11 IEnMin=11 EnMin= -466.844426048979     IErMin=11 ErrMin= 3.30D-05
 ErrMax= 3.30D-05  0.00D+00 EMaxC= 1.00D-01 BMatC= 8.68D-07 BMatP= 4.22D-06
 IDIUse=1 WtCom= 1.00D+00 WtEn= 0.00D+00
 Coeff-Com: -0.268D-02 0.579D-02 0.156D-02-0.286D-01 0.556D-02 0.844D-01
 Coeff-Com: -0.269D-01-0.143D+00-0.750D-01 0.435D+00 0.743D+00
 Coeff:     -0.268D-02 0.579D-02 0.156D-02-0.286D-01 0.556D-02 0.844D-01
 Coeff:     -0.269D-01-0.143D+00-0.750D-01 0.435D+00 0.743D+00
 Gap=     0.291 Goal=   None    Shift=    0.000
 Gap=     0.291 Goal=   None    Shift=    0.000
 RMSDP=4.05D-06 MaxDP=1.72D-04 DE=-1.58D-05 OVMax= 1.53D-03

 Cycle  12  Pass 1  IDiag  1:
 RMSU=  1.83D-06    CP:  8.93D-01  2.33D+00  1.40D+00  2.93D+00  3.00D+00
                    CP:  3.00D+00  3.00D+00  3.00D+00  1.55D+00  1.81D+00
                    CP:  1.36D+00
 E= -466.844426892833     Delta-E=       -0.000000843855 Rises=F Damp=F
 DIIS: error= 1.54D-05 at cycle  12 NSaved=  12.
 NSaved=12 IEnMin=12 EnMin= -466.844426892833     IErMin=12 ErrMin= 1.54D-05
 ErrMax= 1.54D-05  0.00D+00 EMaxC= 1.00D-01 BMatC= 1.03D-07 BMatP= 8.68D-07
 IDIUse=1 WtCom= 1.00D+00 WtEn= 0.00D+00
 Coeff-Com:  0.812D-03-0.177D-02-0.326D-03 0.102D-01-0.405D-02-0.370D-01
 Coeff-Com:  0.274D-01 0.488D-01-0.236D-02-0.209D+00 0.326D-02 0.116D+01
 Coeff:      0.812D-03-0.177D-02-0.326D-03 0.102D-01-0.405D-02-0.370D-01
 Coeff:      0.274D-01 0.488D-01-0.236D-02-0.209D+00 0.326D-02 0.116D+01
 Gap=     0.291 Goal=   None    Shift=    0.000
 Gap=     0.291 Goal=   None    Shift=    0.000
 RMSDP=1.19D-06 MaxDP=4.31D-05 DE=-8.44D-07 OVMax= 2.37D-04

 Cycle  13  Pass 1  IDiag  1:
 RMSU=  8.52D-07    CP:  8.93D-01  2.33D+00  1.40D+00  2.93D+00  3.00D+00
                    CP:  3.00D+00  3.00D+00  3.00D+00  1.56D+00  1.86D+00
                    CP:  1.48D+00  1.13D+00
 E= -466.844427035322     Delta-E=       -0.000000142489 Rises=F Damp=F
 DIIS: error= 8.20D-06 at cycle  13 NSaved=  13.
 NSaved=13 IEnMin=13 EnMin= -466.844427035322     IErMin=13 ErrMin= 8.20D-06
 ErrMax= 8.20D-06  0.00D+00 EMaxC= 1.00D-01 BMatC= 2.34D-08 BMatP= 1.03D-07
 IDIUse=1 WtCom= 1.00D+00 WtEn= 0.00D+00
 Coeff-Com:  0.449D-04-0.935D-04 0.290D-04 0.111D-02-0.723D-03-0.426D-02
 Coeff-Com:  0.262D-02 0.869D-02 0.239D-02-0.379D-01-0.764D-01-0.402D-01
 Coeff-Com:  0.114D+01
 Coeff:      0.449D-04-0.935D-04 0.290D-04 0.111D-02-0.723D-03-0.426D-02
 Coeff:      0.262D-02 0.869D-02 0.239D-02-0.379D-01-0.764D-01-0.402D-01
 Coeff:      0.114D+01
 Gap=     0.291 Goal=   None    Shift=    0.000
 Gap=     0.291 Goal=   None    Shift=    0.000
 RMSDP=4.99D-07 MaxDP=2.92D-05 DE=-1.42D-07 OVMax= 1.39D-04

 Cycle  14  Pass 1  IDiag  1:
 RMSU=  2.85D-07    CP:  8.93D-01  2.33D+00  1.40D+00  2.93D+00  3.00D+00
                    CP:  3.00D+00  3.00D+00  3.00D+00  1.56D+00  1.88D+00
                    CP:  1.52D+00  1.20D+00  1.30D+00
 E= -466.844427077574     Delta-E=       -0.000000042252 Rises=F Damp=F
 DIIS: error= 4.91D-06 at cycle  14 NSaved=  14.
 NSaved=14 IEnMin=14 EnMin= -466.844427077574     IErMin=14 ErrMin= 4.91D-06
 ErrMax= 4.91D-06  0.00D+00 EMaxC= 1.00D-01 BMatC= 8.51D-09 BMatP= 2.34D-08
 IDIUse=1 WtCom= 1.00D+00 WtEn= 0.00D+00
 Coeff-Com: -0.384D-03 0.831D-03 0.244D-03-0.399D-02 0.104D-02 0.134D-01
 Coeff-Com: -0.893D-02-0.175D-01-0.478D-03 0.734D-01 0.650D-03-0.402D+00
 Coeff-Com: -0.578D-01 0.140D+01
 Coeff:     -0.384D-03 0.831D-03 0.244D-03-0.399D-02 0.104D-02 0.134D-01
 Coeff:     -0.893D-02-0.175D-01-0.478D-03 0.734D-01 0.650D-03-0.402D+00
 Coeff:     -0.578D-01 0.140D+01
 Gap=     0.291 Goal=   None    Shift=    0.000
 Gap=     0.291 Goal=   None    Shift=    0.000
 RMSDP=3.91D-07 MaxDP=2.11D-05 DE=-4.23D-08 OVMax= 9.75D-05

 Cycle  15  Pass 1  IDiag  1:
 RMSU=  1.77D-07    CP:  8.93D-01  2.33D+00  1.40D+00  2.93D+00  3.00D+00
                    CP:  3.00D+00  3.00D+00  3.00D+00  1.56D+00  1.89D+00
                    CP:  1.52D+00  1.23D+00  1.50D+00  2.02D+00
 E= -466.844427097342     Delta-E=       -0.000000019768 Rises=F Damp=F
 DIIS: error= 2.10D-06 at cycle  15 NSaved=  15.
 NSaved=15 IEnMin=15 EnMin= -466.844427097342     IErMin=15 ErrMin= 2.10D-06
 ErrMax= 2.10D-06  0.00D+00 EMaxC= 1.00D-01 BMatC= 1.73D-09 BMatP= 8.51D-09
 IDIUse=1 WtCom= 1.00D+00 WtEn= 0.00D+00
 Coeff-Com: -0.371D-04 0.789D-04-0.640D-05-0.633D-03 0.465D-03 0.254D-02
 Coeff-Com: -0.255D-02-0.354D-02 0.146D-02 0.206D-01 0.165D-01-0.516D-01
 Coeff-Com: -0.304D+00 0.184D+00 0.114D+01
 Coeff:     -0.371D-04 0.789D-04-0.640D-05-0.633D-03 0.465D-03 0.254D-02
 Coeff:     -0.255D-02-0.354D-02 0.146D-02 0.206D-01 0.165D-01-0.516D-01
 Coeff:     -0.304D+00 0.184D+00 0.114D+01
 Gap=     0.291 Goal=   None    Shift=    0.000
 Gap=     0.291 Goal=   None    Shift=    0.000
 RMSDP=2.33D-07 MaxDP=1.01D-05 DE=-1.98D-08 OVMax= 5.63D-05

 Cycle  16  Pass 1  IDiag  1:
 RMSU=  7.14D-08    CP:  8.93D-01  2.33D+00  1.40D+00  2.93D+00  3.00D+00
                    CP:  3.00D+00  3.00D+00  3.00D+00  1.56D+00  1.88D+00
                    CP:  1.51D+00  1.21D+00  1.58D+00  2.54D+00  1.57D+00
 E= -466.844427100931     Delta-E=       -0.000000003589 Rises=F Damp=F
 DIIS: error= 6.48D-07 at cycle  16 NSaved=  16.
 NSaved=16 IEnMin=16 EnMin= -466.844427100931     IErMin=16 ErrMin= 6.48D-07
 ErrMax= 6.48D-07  0.00D+00 EMaxC= 1.00D-01 BMatC= 2.19D-10 BMatP= 1.73D-09
 IDIUse=1 WtCom= 1.00D+00 WtEn= 0.00D+00
 Coeff-Com:  0.129D-04-0.283D-04-0.117D-04 0.178D-03-0.860D-05-0.584D-03
 Coeff-Com:  0.317D-03 0.934D-03 0.183D-03-0.421D-02 0.438D-02 0.416D-01
 Coeff-Com: -0.627D-01-0.171D+00 0.276D+00 0.915D+00
 Coeff:      0.129D-04-0.283D-04-0.117D-04 0.178D-03-0.860D-05-0.584D-03
 Coeff:      0.317D-03 0.934D-03 0.183D-03-0.421D-02 0.438D-02 0.416D-01
 Coeff:     -0.627D-01-0.171D+00 0.276D+00 0.915D+00
 Gap=     0.291 Goal=   None    Shift=    0.000
 Gap=     0.291 Goal=   None    Shift=    0.000
 RMSDP=7.09D-08 MaxDP=3.07D-06 DE=-3.59D-09 OVMax= 1.58D-05

 Cycle  17  Pass 1  IDiag  1:
 RMSU=  2.32D-08    CP:  8.93D-01  2.33D+00  1.40D+00  2.93D+00  3.00D+00
                    CP:  3.00D+00  3.00D+00  3.00D+00  1.56D+00  1.88D+00
                    CP:  1.51D+00  1.20D+00  1.58D+00  2.66D+00  1.76D+00
                    CP:  1.41D+00
 E= -466.844427101183     Delta-E=       -0.000000000252 Rises=F Damp=F
 DIIS: error= 1.73D-07 at cycle  17 NSaved=  17.
 NSaved=17 IEnMin=17 EnMin= -466.844427101183     IErMin=17 ErrMin= 1.73D-07
 ErrMax= 1.73D-07  0.00D+00 EMaxC= 1.00D-01 BMatC= 2.29D-11 BMatP= 2.19D-10
 IDIUse=1 WtCom= 1.00D+00 WtEn= 0.00D+00
 Coeff-Com: -0.146D-05 0.322D-05 0.207D-05 0.181D-04-0.274D-04-0.882D-04
 Coeff-Com:  0.133D-03 0.265D-03-0.173D-03-0.211D-02-0.305D-03 0.117D-01
 Coeff-Com:  0.158D-01-0.524D-01-0.564D-01 0.218D+00 0.866D+00
 Coeff:     -0.146D-05 0.322D-05 0.207D-05 0.181D-04-0.274D-04-0.882D-04
 Coeff:      0.133D-03 0.265D-03-0.173D-03-0.211D-02-0.305D-03 0.117D-01
 Coeff:      0.158D-01-0.524D-01-0.564D-01 0.218D+00 0.866D+00
 Gap=     0.291 Goal=   None    Shift=    0.000
 Gap=     0.291 Goal=   None    Shift=    0.000
 RMSDP=1.57D-08 MaxDP=7.41D-07 DE=-2.52D-10 OVMax= 2.75D-06

 Cycle  18  Pass 1  IDiag  1:
 RMSU=  8.35D-09    CP:  8.93D-01  2.33D+00  1.40D+00  2.93D+00  3.00D+00
                    CP:  3.00D+00  3.00D+00  3.00D+00  1.56D+00  1.88D+00
                    CP:  1.51D+00  1.20D+00  1.58D+00  2.67D+00  1.81D+00
                    CP:  1.53D+00  1.17D+00
 E= -466.844427101193     Delta-E=       -0.000000000010 Rises=F Damp=F
 DIIS: error= 6.26D-08 at cycle  18 NSaved=  18.
 NSaved=18 IEnMin=18 EnMin= -466.844427101193     IErMin=18 ErrMin= 6.26D-08
 ErrMax= 6.26D-08  0.00D+00 EMaxC= 1.00D-01 BMatC= 3.45D-12 BMatP= 2.29D-11
 IDIUse=1 WtCom= 1.00D+00 WtEn= 0.00D+00
 Coeff-Com: -0.147D-05 0.320D-05 0.158D-05-0.132D-04-0.895D-05 0.418D-04
 Coeff-Com: -0.111D-04-0.319D-05-0.507D-04-0.173D-03-0.624D-03-0.107D-02
 Coeff-Com:  0.124D-01 0.307D-02-0.504D-01-0.396D-01 0.253D+00 0.823D+00
 Coeff:     -0.147D-05 0.320D-05 0.158D-05-0.132D-04-0.895D-05 0.418D-04
 Coeff:     -0.111D-04-0.319D-05-0.507D-04-0.173D-03-0.624D-03-0.107D-02
 Coeff:      0.124D-01 0.307D-02-0.504D-01-0.396D-01 0.253D+00 0.823D+00
 Gap=     0.291 Goal=   None    Shift=    0.000
 Gap=     0.291 Goal=   None    Shift=    0.000
 RMSDP=5.40D-09 MaxDP=2.23D-07 DE=-1.01D-11 OVMax= 8.93D-07

 Error on total polarization charges =  0.01182
 SCF Done:  E(UwB97XD) =  -466.844427101     A.U. after   18 cycles
            NFock= 18  Conv=0.54D-08     -V/T= 2.0055
 <Sx>= 0.0000 <Sy>= 0.0000 <Sz>= 0.0000 <S**2>= 0.0000 S= 0.0000
 <L.S>=  0.00000000000    
 KE= 4.642707253094D+02 PE=-2.453570569787D+03 EE= 8.365703680753D+02
 --------------------------------------------------------------------
 Variational PCM results
 =======================
 <psi(f)|   H    |psi(f)>                     (a.u.) =    -466.842888
 <psi(f)|H+V(f)/2|psi(f)>                     (a.u.) =    -466.844427
 (Polarized solute)-Solvent               (kcal/mol) =      -0.97
 --------------------------------------------------------------------
 Partition over spheres:
 Sphere  on Atom  Surface  Charge   GEl     GCav    GDR
    1      C1       7.16   0.011   -0.05    0.00    0.00
    2      C2       3.95   0.006   -0.03    0.00    0.00
    3      H3       7.52  -0.010   -0.03    0.00    0.00
    4      H4       2.32  -0.003   -0.01    0.00    0.00
    5      C5       4.61   0.009   -0.06    0.00    0.00
    6      C6       3.17   0.004   -0.02    0.00    0.00
    7      H7       4.70  -0.006   -0.03    0.00    0.00
    8      H8       2.33  -0.003   -0.01    0.00    0.00
    9      C9       3.32   0.002    0.00    0.00    0.00
   10      H10      6.59  -0.007   -0.01    0.00    0.00
   11      H11      3.73  -0.003   -0.01    0.00    0.00
   12      C12      6.75   0.011   -0.06    0.00    0.00
   13      H13      7.50  -0.010   -0.03    0.00    0.00
   14      C14      6.59   0.010   -0.05    0.00    0.00
   15      H15      7.52  -0.010   -0.03    0.00    0.00
   16      C16      3.57   0.001    0.00    0.00    0.00
   17      H17      4.66  -0.005   -0.02    0.00    0.00
   18      H18      7.04  -0.008   -0.03    0.00    0.00
   19      C19      5.43   0.010   -0.07    0.00    0.00
   20      H20      5.34  -0.007   -0.03    0.00    0.00
   21      C21      6.94   0.011   -0.06    0.00    0.00
   22      H22      7.52  -0.010   -0.03    0.00    0.00
   23      C23      3.47   0.002    0.00    0.00    0.00
   24      H24      4.05  -0.004   -0.01    0.00    0.00
   25      H25      6.65  -0.007   -0.01    0.00    0.00
   26      C26      3.31   0.001    0.00    0.00    0.00
   27      H27      6.96  -0.008   -0.03    0.00    0.00
   28      H28      4.61  -0.005   -0.02    0.00    0.00
 Added spheres:    71.97   0.016   -0.22    0.00    0.00
 --------------------------------------------------------------------
 After PCM corrections, the energy is  -466.844427101     a.u.
 --------------------------------------------------------------------
 Annihilation of the first spin contaminant:
 S**2 before annihilation     0.0000,   after    -0.0000
 Leave Link  502 at Mon Aug  3 15:32:07 2020, MaxMem=  6442450944 cpu:            7601.7 elap:             319.4
 (Enter /scratch/scicomp/CentOS/7.3.1611/Haswell/software/Gaussian/g16/l601.exe)
 Copying SCF densities to generalized density rwf, IOpCl= 1 IROHF=0.

 **********************************************************************

            Population analysis using the SCF Density.

 **********************************************************************

 Alpha  occ. eigenvalues --  -10.28629 -10.28628 -10.28299 -10.28298 -10.28271
 Alpha  occ. eigenvalues --  -10.28270 -10.28224 -10.28223 -10.28019 -10.28018
 Alpha  occ. eigenvalues --  -10.27289 -10.27288  -0.94629  -0.93535  -0.84762
 Alpha  occ. eigenvalues --   -0.84406  -0.83706  -0.83568  -0.71738  -0.71067
 Alpha  occ. eigenvalues --   -0.68381  -0.67898  -0.59938  -0.59885  -0.57683
 Alpha  occ. eigenvalues --   -0.56495  -0.53734  -0.53024  -0.51098  -0.50973
 Alpha  occ. eigenvalues --   -0.49914  -0.49136  -0.47672  -0.46957  -0.45843
 Alpha  occ. eigenvalues --   -0.44915  -0.41529  -0.41025  -0.39959  -0.39249
 Alpha  occ. eigenvalues --   -0.39232  -0.38704  -0.30273  -0.26624
 Alpha virt. eigenvalues --    0.02459   0.06116   0.10502   0.12362   0.13447
 Alpha virt. eigenvalues --    0.14564   0.14875   0.15723   0.15779   0.16021
 Alpha virt. eigenvalues --    0.16575   0.17110   0.17425   0.18311   0.19957
 Alpha virt. eigenvalues --    0.21095   0.21464   0.22853   0.23468   0.24235
 Alpha virt. eigenvalues --    0.24571   0.25261   0.25982   0.26573   0.27672
 Alpha virt. eigenvalues --    0.28573   0.29231   0.29497   0.30360   0.30600
 Alpha virt. eigenvalues --    0.30991   0.31620   0.32529   0.32947   0.34072
 Alpha virt. eigenvalues --    0.34117   0.34778   0.35717   0.36324   0.37398
 Alpha virt. eigenvalues --    0.38263   0.38554   0.41323   0.41806   0.42069
 Alpha virt. eigenvalues --    0.42943   0.44059   0.44251   0.44888   0.45512
 Alpha virt. eigenvalues --    0.46706   0.47588   0.48057   0.48277   0.48669
 Alpha virt. eigenvalues --    0.48871   0.48922   0.49132   0.49949   0.49951
 Alpha virt. eigenvalues --    0.50430   0.50503   0.52076   0.52347   0.52868
 Alpha virt. eigenvalues --    0.53092   0.54242   0.54349   0.55173   0.55236
 Alpha virt. eigenvalues --    0.56956   0.57108   0.57711   0.59350   0.60290
 Alpha virt. eigenvalues --    0.60792   0.61212   0.62577   0.62838   0.64311
 Alpha virt. eigenvalues --    0.65973   0.66019   0.67802   0.68375   0.68979
 Alpha virt. eigenvalues --    0.69106   0.71965   0.73790   0.74907   0.75804
 Alpha virt. eigenvalues --    0.77925   0.78076   0.78581   0.80079   0.81073
 Alpha virt. eigenvalues --    0.82043   0.83242   0.84346   0.84985   0.87541
 Alpha virt. eigenvalues --    0.89414   0.90837   0.91456   0.93512   0.93549
 Alpha virt. eigenvalues --    0.94734   0.96996   0.97015   0.98796   0.99638
 Alpha virt. eigenvalues --    1.01360   1.03092   1.04262   1.04972   1.05204
 Alpha virt. eigenvalues --    1.07203   1.07728   1.08063   1.10108   1.12001
 Alpha virt. eigenvalues --    1.12296   1.12314   1.14497   1.15698   1.16713
 Alpha virt. eigenvalues --    1.16879   1.18549   1.18895   1.19124   1.19796
 Alpha virt. eigenvalues --    1.20036   1.20675   1.23360   1.25129   1.25549
 Alpha virt. eigenvalues --    1.26127   1.26715   1.28152   1.28956   1.29230
 Alpha virt. eigenvalues --    1.30546   1.31064   1.31810   1.32045   1.33201
 Alpha virt. eigenvalues --    1.34272   1.34570   1.37015   1.37590   1.38324
 Alpha virt. eigenvalues --    1.38979   1.39749   1.40665   1.40803   1.42252
 Alpha virt. eigenvalues --    1.42581   1.42750   1.43501   1.44431   1.44827
 Alpha virt. eigenvalues --    1.45144   1.46037   1.47614   1.48808   1.49155
 Alpha virt. eigenvalues --    1.50568   1.51954   1.53070   1.55423   1.56663
 Alpha virt. eigenvalues --    1.58196   1.58762   1.59932   1.61087   1.61742
 Alpha virt. eigenvalues --    1.63287   1.64074   1.64548   1.65891   1.67247
 Alpha virt. eigenvalues --    1.68132   1.71525   1.75297   1.75778   1.77596
 Alpha virt. eigenvalues --    1.80052   1.81963   1.82852   1.84473   1.84725
 Alpha virt. eigenvalues --    1.88627   1.89334   1.90554   1.92125   1.93143
 Alpha virt. eigenvalues --    1.94411   1.96199   1.97800   2.00211   2.01303
 Alpha virt. eigenvalues --    2.04171   2.04424   2.09166   2.11466   2.11932
 Alpha virt. eigenvalues --    2.12087   2.13260   2.15534   2.16203   2.17620
 Alpha virt. eigenvalues --    2.17735   2.19621   2.20067   2.23147   2.23572
 Alpha virt. eigenvalues --    2.24549   2.24773   2.25431   2.29006   2.31698
 Alpha virt. eigenvalues --    2.35874   2.36564   2.38691   2.41206   2.42021
 Alpha virt. eigenvalues --    2.44415   2.46040   2.46376   2.48429   2.49493
 Alpha virt. eigenvalues --    2.50045   2.51275   2.51347   2.54090   2.56301
 Alpha virt. eigenvalues --    2.58392   2.59352   2.60507   2.62770   2.63240
 Alpha virt. eigenvalues --    2.63572   2.64527   2.65358   2.66214   2.66513
 Alpha virt. eigenvalues --    2.68794   2.69202   2.69633   2.72795   2.73517
 Alpha virt. eigenvalues --    2.74067   2.74622   2.75370   2.75724   2.77103
 Alpha virt. eigenvalues --    2.79006   2.80092   2.80837   2.80896   2.81518
 Alpha virt. eigenvalues --    2.81776   2.83562   2.83570   2.84123   2.86118
 Alpha virt. eigenvalues --    2.86152   2.87878   2.87949   2.89682   2.90229
 Alpha virt. eigenvalues --    2.92188   2.92618   2.93668   2.94669   2.96317
 Alpha virt. eigenvalues --    2.96918   2.98052   2.98405   2.99524   3.00846
 Alpha virt. eigenvalues --    3.01421   3.02227   3.03863   3.04846   3.06323
 Alpha virt. eigenvalues --    3.06821   3.08984   3.10080   3.10615   3.11325
 Alpha virt. eigenvalues --    3.11349   3.13310   3.13495   3.14643   3.15143
 Alpha virt. eigenvalues --    3.16094   3.16673   3.17091   3.18212   3.19385
 Alpha virt. eigenvalues --    3.20211   3.20758   3.20894   3.21610   3.21762
 Alpha virt. eigenvalues --    3.22837   3.22951   3.23145   3.24460   3.25580
 Alpha virt. eigenvalues --    3.25673   3.27256   3.27950   3.28129   3.29246
 Alpha virt. eigenvalues --    3.29369   3.30619   3.30668   3.31025   3.32841
 Alpha virt. eigenvalues --    3.32952   3.33512   3.34824   3.36174   3.36491
 Alpha virt. eigenvalues --    3.37107   3.37238   3.38757   3.39818   3.42025
 Alpha virt. eigenvalues --    3.42881   3.43983   3.44397   3.45668   3.45807
 Alpha virt. eigenvalues --    3.46572   3.47115   3.47365   3.47800   3.48087
 Alpha virt. eigenvalues --    3.48829   3.50995   3.51147   3.52147   3.54375
 Alpha virt. eigenvalues --    3.54458   3.54883   3.55970   3.57152   3.58769
 Alpha virt. eigenvalues --    3.60395   3.61125   3.62137   3.62617   3.63876
 Alpha virt. eigenvalues --    3.65311   3.67277   3.69481   3.69708   3.69972
 Alpha virt. eigenvalues --    3.70917   3.71795   3.74117   3.77364   3.78368
 Alpha virt. eigenvalues --    3.79649   3.80476   3.81054   3.82331   3.83692
 Alpha virt. eigenvalues --    3.84355   3.85864   3.86969   3.89171   3.90056
 Alpha virt. eigenvalues --    3.91465   3.92830   3.95747   3.96985   4.00073
 Alpha virt. eigenvalues --    4.00232   4.03320   4.03864   4.05122   4.08461
 Alpha virt. eigenvalues --    4.08471   4.09140   4.09664   4.10841   4.12514
 Alpha virt. eigenvalues --    4.13823   4.14306   4.16853   4.18124   4.18629
 Alpha virt. eigenvalues --    4.20364   4.22540   4.23238   4.25951   4.27358
 Alpha virt. eigenvalues --    4.28067   4.30533   4.32128   4.32191   4.36713
 Alpha virt. eigenvalues --    4.37977   4.38297   4.40139   4.42279   4.46241
 Alpha virt. eigenvalues --    4.47732   4.49583   4.50247   4.51238   4.54097
 Alpha virt. eigenvalues --    4.55980   4.60645   4.62290   4.67694   4.67808
 Alpha virt. eigenvalues --    4.71057   4.71452   4.72717   4.75764   4.78446
 Alpha virt. eigenvalues --    4.78787   4.81604   4.83289   4.85303   4.85981
 Alpha virt. eigenvalues --    4.87319   4.89637   4.93602   4.94916   4.96618
 Alpha virt. eigenvalues --    4.98830   5.05387   5.05879   5.10116   5.10937
 Alpha virt. eigenvalues --    5.14866   5.18937   5.19140   5.22637   5.24476
 Alpha virt. eigenvalues --    5.26335   5.35206   5.36460   5.41088   5.42700
 Alpha virt. eigenvalues --    5.45829   5.46709   5.51250   5.56089   5.71610
 Alpha virt. eigenvalues --    5.72130   5.78216   5.78439   5.97224   6.02079
 Alpha virt. eigenvalues --    7.95313   7.95323   8.02706   8.03824   8.05286
 Alpha virt. eigenvalues --    8.09589   8.11149   8.14185   8.17831   8.19978
 Alpha virt. eigenvalues --    8.36253   8.36619  34.77184  34.77838  34.81449
 Alpha virt. eigenvalues --   34.81542  34.84907  34.91520  34.96280  35.00422
 Alpha virt. eigenvalues --   35.01488  35.03197  35.18026  35.18544
  Beta  occ. eigenvalues --  -10.28629 -10.28628 -10.28299 -10.28298 -10.28271
  Beta  occ. eigenvalues --  -10.28270 -10.28224 -10.28223 -10.28019 -10.28018
  Beta  occ. eigenvalues --  -10.27289 -10.27288  -0.94629  -0.93535  -0.84762
  Beta  occ. eigenvalues --   -0.84406  -0.83706  -0.83568  -0.71738  -0.71067
  Beta  occ. eigenvalues --   -0.68381  -0.67898  -0.59938  -0.59885  -0.57683
  Beta  occ. eigenvalues --   -0.56495  -0.53734  -0.53024  -0.51098  -0.50973
  Beta  occ. eigenvalues --   -0.49914  -0.49136  -0.47672  -0.46957  -0.45843
  Beta  occ. eigenvalues --   -0.44915  -0.41529  -0.41025  -0.39959  -0.39249
  Beta  occ. eigenvalues --   -0.39232  -0.38704  -0.30273  -0.26624
  Beta virt. eigenvalues --    0.02459   0.06116   0.10502   0.12362   0.13447
  Beta virt. eigenvalues --    0.14564   0.14875   0.15723   0.15779   0.16021
  Beta virt. eigenvalues --    0.16575   0.17110   0.17425   0.18311   0.19957
  Beta virt. eigenvalues --    0.21095   0.21464   0.22853   0.23468   0.24235
  Beta virt. eigenvalues --    0.24571   0.25261   0.25982   0.26573   0.27672
  Beta virt. eigenvalues --    0.28573   0.29231   0.29497   0.30360   0.30600
  Beta virt. eigenvalues --    0.30991   0.31620   0.32529   0.32947   0.34072
  Beta virt. eigenvalues --    0.34117   0.34778   0.35717   0.36324   0.37398
  Beta virt. eigenvalues --    0.38263   0.38554   0.41323   0.41806   0.42069
  Beta virt. eigenvalues --    0.42943   0.44059   0.44251   0.44888   0.45512
  Beta virt. eigenvalues --    0.46706   0.47588   0.48057   0.48277   0.48669
  Beta virt. eigenvalues --    0.48871   0.48922   0.49132   0.49949   0.49951
  Beta virt. eigenvalues --    0.50430   0.50503   0.52076   0.52347   0.52868
  Beta virt. eigenvalues --    0.53092   0.54242   0.54349   0.55173   0.55236
  Beta virt. eigenvalues --    0.56956   0.57108   0.57711   0.59350   0.60290
  Beta virt. eigenvalues --    0.60792   0.61212   0.62577   0.62838   0.64311
  Beta virt. eigenvalues --    0.65973   0.66019   0.67802   0.68375   0.68979
  Beta virt. eigenvalues --    0.69106   0.71965   0.73790   0.74907   0.75804
  Beta virt. eigenvalues --    0.77925   0.78076   0.78581   0.80079   0.81073
  Beta virt. eigenvalues --    0.82043   0.83242   0.84346   0.84985   0.87541
  Beta virt. eigenvalues --    0.89414   0.90837   0.91456   0.93512   0.93549
  Beta virt. eigenvalues --    0.94734   0.96996   0.97015   0.98796   0.99638
  Beta virt. eigenvalues --    1.01360   1.03092   1.04262   1.04972   1.05204
  Beta virt. eigenvalues --    1.07203   1.07728   1.08063   1.10108   1.12001
  Beta virt. eigenvalues --    1.12296   1.12314   1.14497   1.15698   1.16713
  Beta virt. eigenvalues --    1.16879   1.18549   1.18895   1.19124   1.19796
  Beta virt. eigenvalues --    1.20036   1.20675   1.23360   1.25129   1.25549
  Beta virt. eigenvalues --    1.26127   1.26715   1.28152   1.28956   1.29230
  Beta virt. eigenvalues --    1.30546   1.31064   1.31810   1.32045   1.33201
  Beta virt. eigenvalues --    1.34272   1.34570   1.37015   1.37590   1.38324
  Beta virt. eigenvalues --    1.38979   1.39749   1.40665   1.40803   1.42252
  Beta virt. eigenvalues --    1.42581   1.42750   1.43501   1.44431   1.44827
  Beta virt. eigenvalues --    1.45144   1.46037   1.47614   1.48808   1.49155
  Beta virt. eigenvalues --    1.50568   1.51954   1.53070   1.55423   1.56663
  Beta virt. eigenvalues --    1.58196   1.58762   1.59932   1.61087   1.61742
  Beta virt. eigenvalues --    1.63287   1.64074   1.64548   1.65891   1.67247
  Beta virt. eigenvalues --    1.68132   1.71525   1.75297   1.75778   1.77596
  Beta virt. eigenvalues --    1.80052   1.81963   1.82852   1.84473   1.84725
  Beta virt. eigenvalues --    1.88627   1.89334   1.90554   1.92125   1.93143
  Beta virt. eigenvalues --    1.94411   1.96199   1.97800   2.00211   2.01303
  Beta virt. eigenvalues --    2.04171   2.04424   2.09166   2.11466   2.11932
  Beta virt. eigenvalues --    2.12087   2.13260   2.15534   2.16203   2.17620
  Beta virt. eigenvalues --    2.17735   2.19621   2.20067   2.23147   2.23572
  Beta virt. eigenvalues --    2.24549   2.24773   2.25431   2.29006   2.31698
  Beta virt. eigenvalues --    2.35874   2.36564   2.38691   2.41206   2.42021
  Beta virt. eigenvalues --    2.44415   2.46040   2.46376   2.48429   2.49493
  Beta virt. eigenvalues --    2.50045   2.51275   2.51347   2.54090   2.56301
  Beta virt. eigenvalues --    2.58392   2.59352   2.60507   2.62770   2.63240
  Beta virt. eigenvalues --    2.63572   2.64527   2.65358   2.66214   2.66513
  Beta virt. eigenvalues --    2.68794   2.69202   2.69633   2.72795   2.73517
  Beta virt. eigenvalues --    2.74067   2.74622   2.75370   2.75724   2.77103
  Beta virt. eigenvalues --    2.79006   2.80092   2.80837   2.80896   2.81518
  Beta virt. eigenvalues --    2.81776   2.83562   2.83570   2.84123   2.86118
  Beta virt. eigenvalues --    2.86152   2.87878   2.87949   2.89682   2.90229
  Beta virt. eigenvalues --    2.92188   2.92618   2.93668   2.94669   2.96317
  Beta virt. eigenvalues --    2.96918   2.98052   2.98405   2.99524   3.00846
  Beta virt. eigenvalues --    3.01421   3.02227   3.03863   3.04846   3.06323
  Beta virt. eigenvalues --    3.06821   3.08984   3.10080   3.10615   3.11325
  Beta virt. eigenvalues --    3.11349   3.13310   3.13495   3.14643   3.15143
  Beta virt. eigenvalues --    3.16094   3.16673   3.17091   3.18212   3.19385
  Beta virt. eigenvalues --    3.20211   3.20758   3.20894   3.21610   3.21762
  Beta virt. eigenvalues --    3.22837   3.22951   3.23145   3.24460   3.25580
  Beta virt. eigenvalues --    3.25673   3.27256   3.27950   3.28129   3.29246
  Beta virt. eigenvalues --    3.29369   3.30619   3.30668   3.31025   3.32841
  Beta virt. eigenvalues --    3.32952   3.33512   3.34824   3.36174   3.36491
  Beta virt. eigenvalues --    3.37107   3.37238   3.38757   3.39818   3.42025
  Beta virt. eigenvalues --    3.42881   3.43983   3.44397   3.45668   3.45807
  Beta virt. eigenvalues --    3.46572   3.47115   3.47365   3.47800   3.48087
  Beta virt. eigenvalues --    3.48829   3.50995   3.51147   3.52147   3.54375
  Beta virt. eigenvalues --    3.54458   3.54883   3.55970   3.57152   3.58769
  Beta virt. eigenvalues --    3.60395   3.61125   3.62137   3.62617   3.63876
  Beta virt. eigenvalues --    3.65311   3.67277   3.69481   3.69708   3.69972
  Beta virt. eigenvalues --    3.70917   3.71795   3.74117   3.77364   3.78368
  Beta virt. eigenvalues --    3.79649   3.80476   3.81054   3.82331   3.83692
  Beta virt. eigenvalues --    3.84355   3.85864   3.86969   3.89171   3.90056
  Beta virt. eigenvalues --    3.91465   3.92830   3.95747   3.96985   4.00073
  Beta virt. eigenvalues --    4.00232   4.03320   4.03864   4.05122   4.08461
  Beta virt. eigenvalues --    4.08471   4.09140   4.09664   4.10841   4.12514
  Beta virt. eigenvalues --    4.13823   4.14306   4.16853   4.18124   4.18629
  Beta virt. eigenvalues --    4.20364   4.22540   4.23238   4.25951   4.27358
  Beta virt. eigenvalues --    4.28067   4.30533   4.32128   4.32191   4.36713
  Beta virt. eigenvalues --    4.37977   4.38297   4.40139   4.42279   4.46241
  Beta virt. eigenvalues --    4.47732   4.49583   4.50247   4.51238   4.54097
  Beta virt. eigenvalues --    4.55980   4.60645   4.62290   4.67694   4.67808
  Beta virt. eigenvalues --    4.71057   4.71452   4.72717   4.75764   4.78446
  Beta virt. eigenvalues --    4.78787   4.81604   4.83289   4.85303   4.85981
  Beta virt. eigenvalues --    4.87319   4.89637   4.93602   4.94916   4.96618
  Beta virt. eigenvalues --    4.98830   5.05387   5.05879   5.10116   5.10937
  Beta virt. eigenvalues --    5.14866   5.18937   5.19140   5.22637   5.24476
  Beta virt. eigenvalues --    5.26335   5.35206   5.36460   5.41088   5.42700
  Beta virt. eigenvalues --    5.45829   5.46709   5.51250   5.56089   5.71610
  Beta virt. eigenvalues --    5.72130   5.78216   5.78439   5.97224   6.02079
  Beta virt. eigenvalues --    7.95313   7.95323   8.02706   8.03824   8.05286
  Beta virt. eigenvalues --    8.09589   8.11149   8.14185   8.17831   8.19978
  Beta virt. eigenvalues --    8.36253   8.36619  34.77184  34.77838  34.81449
  Beta virt. eigenvalues --   34.81542  34.84907  34.91520  34.96280  35.00422
  Beta virt. eigenvalues --   35.01488  35.03197  35.18026  35.18544
          Condensed to atoms (all electrons):
               1          2          3          4          5          6
     1  C    5.136723  -0.002279   0.425995  -0.001892   0.001614  -0.008833
     2  C   -0.002279   5.386222  -0.002494   0.423624  -0.065464  -0.023171
     3  H    0.425995  -0.002494   0.498263   0.000035  -0.000052   0.000034
     4  H   -0.001892   0.423624   0.000035   0.466910  -0.012883   0.002659
     5  C    0.001614  -0.065464  -0.000052  -0.012883   5.205224   0.503206
     6  C   -0.008833  -0.023171   0.000034   0.002659   0.503206   5.386135
     7  H    0.000329  -0.003119   0.000002  -0.000087   0.430922  -0.029281
     8  H   -0.002054   0.002657  -0.000076   0.000329  -0.034545   0.423615
     9  C    0.002901  -0.015416  -0.000009  -0.003038  -0.062332   0.222527
    10  H   -0.000048   0.001923  -0.000001  -0.000360  -0.006934  -0.040780
    11  H    0.000195  -0.008067   0.000003   0.000456   0.009737  -0.060898
    12  C   -0.000209   0.017449   0.000002   0.004888   0.285590  -0.072181
    13  H   -0.000001   0.000131   0.000000   0.000053  -0.041032   0.006109
    14  C    0.000167  -0.008832  -0.000000  -0.002054  -0.045952  -0.002268
    15  H   -0.000000   0.000034  -0.000000  -0.000076   0.007672  -0.002498
    16  C   -0.000601   0.016082   0.000001   0.000416  -0.007189  -0.061426
    17  H   -0.000013   0.000886  -0.000000  -0.003637   0.010443  -0.002233
    18  H    0.000003   0.000266   0.000000   0.000401  -0.002764   0.011532
    19  C   -0.045990   0.503192   0.007666  -0.034540  -0.026183  -0.065430
    20  H    0.004447  -0.029323  -0.000114  -0.004873   0.000345  -0.003114
    21  C    0.586125  -0.072182  -0.034165   0.004993   0.003339   0.017436
    22  H   -0.029833   0.006096  -0.006830  -0.000065   0.000046   0.000131
    23  C   -0.089663   0.222482   0.005961  -0.012228   0.010639  -0.015425
    24  H    0.013225  -0.060882  -0.000110  -0.003945   0.000273  -0.008072
    25  H    0.005576  -0.040781  -0.000023  -0.001007   0.000841   0.001923
    26  C    0.278782  -0.061459  -0.032678   0.004475  -0.009355   0.016090
    27  H   -0.034196   0.011536  -0.004283  -0.000101   0.000320   0.000266
    28  H   -0.031124  -0.002236   0.001353  -0.000195  -0.004227   0.000890
               7          8          9         10         11         12
     1  C    0.000329  -0.002054   0.002901  -0.000048   0.000195  -0.000209
     2  C   -0.003119   0.002657  -0.015416   0.001923  -0.008067   0.017449
     3  H    0.000002  -0.000076  -0.000009  -0.000001   0.000003   0.000002
     4  H   -0.000087   0.000329  -0.003038  -0.000360   0.000456   0.004888
     5  C    0.430922  -0.034545  -0.062332  -0.006934   0.009737   0.285590
     6  C   -0.029281   0.423615   0.222527  -0.040780  -0.060898  -0.072181
     7  H    0.482599  -0.004877   0.003405  -0.000240  -0.000035  -0.033905
     8  H   -0.004877   0.466946  -0.012224  -0.001007  -0.003945   0.004996
     9  C    0.003405  -0.012224   4.979342   0.387523   0.464869   0.036956
    10  H   -0.000240  -0.001007   0.387523   0.580768  -0.021919   0.001307
    11  H   -0.000035  -0.003945   0.464869  -0.021919   0.533844  -0.004545
    12  C   -0.033905   0.004996   0.036956   0.001307  -0.004545   5.010047
    13  H   -0.003749  -0.000064  -0.000370  -0.000071   0.000034   0.428863
    14  C    0.004451  -0.001894  -0.089683   0.005571   0.013226   0.586026
    15  H   -0.000114   0.000035   0.005962  -0.000023  -0.000110  -0.034209
    16  C   -0.001221   0.004477   0.351751  -0.023625  -0.055784  -0.051788
    17  H    0.000013  -0.000196  -0.029475   0.007160  -0.008118  -0.015087
    18  H    0.000039  -0.000101  -0.041848  -0.010565  -0.000588   0.005053
    19  C    0.000345  -0.012884   0.010631   0.000841   0.000268   0.003339
    20  H    0.000010  -0.000087   0.003391   0.000378  -0.002180  -0.000186
    21  C   -0.000186   0.004889  -0.003653  -0.000096   0.000035  -0.000386
    22  H   -0.000001   0.000053  -0.000104  -0.000000  -0.000013  -0.000000
    23  C    0.003397  -0.003039   0.002500  -0.000089   0.000411  -0.003653
    24  H   -0.002184   0.000456   0.000411  -0.000025  -0.000018   0.000034
    25  H    0.000378  -0.000360  -0.000089   0.000010  -0.000025  -0.000097
    26  C   -0.002309   0.000416  -0.001472   0.000076  -0.000165   0.001188
    27  H   -0.000017   0.000401  -0.000008   0.000000  -0.000000  -0.000042
    28  H    0.001957  -0.003636   0.000482   0.000004  -0.000004   0.000339
              13         14         15         16         17         18
     1  C   -0.000001   0.000167  -0.000000  -0.000601  -0.000013   0.000003
     2  C    0.000131  -0.008832   0.000034   0.016082   0.000886   0.000266
     3  H    0.000000  -0.000000  -0.000000   0.000001  -0.000000   0.000000
     4  H    0.000053  -0.002054  -0.000076   0.000416  -0.003637   0.000401
     5  C   -0.041032  -0.045952   0.007672  -0.007189   0.010443  -0.002764
     6  C    0.006109  -0.002268  -0.002498  -0.061426  -0.002233   0.011532
     7  H   -0.003749   0.004451  -0.000114  -0.001221   0.000013   0.000039
     8  H   -0.000064  -0.001894   0.000035   0.004477  -0.000196  -0.000101
     9  C   -0.000370  -0.089683   0.005962   0.351751  -0.029475  -0.041848
    10  H   -0.000071   0.005571  -0.000023  -0.023625   0.007160  -0.010565
    11  H    0.000034   0.013226  -0.000110  -0.055784  -0.008118  -0.000588
    12  C    0.428863   0.586026  -0.034209  -0.051788  -0.015087   0.005053
    13  H    0.497290  -0.029824  -0.006832   0.005472  -0.000440  -0.000138
    14  C   -0.029824   5.136795   0.426027   0.278794  -0.031115  -0.034187
    15  H   -0.006832   0.426027   0.498251  -0.032668   0.001353  -0.004283
    16  C    0.005472   0.278794  -0.032668   4.942905   0.393566   0.427712
    17  H   -0.000440  -0.031115   0.001353   0.393566   0.586808  -0.023092
    18  H   -0.000138  -0.034187  -0.004283   0.427712  -0.023092   0.545901
    19  C    0.000046   0.001612  -0.000052  -0.009356  -0.004222   0.000320
    20  H   -0.000001   0.000329   0.000002  -0.002307   0.001957  -0.000017
    21  C   -0.000000  -0.000209   0.000002   0.001188   0.000339  -0.000042
    22  H    0.000000  -0.000001   0.000000   0.000014  -0.000001  -0.000001
    23  C   -0.000103   0.002902  -0.000009  -0.001472   0.000481  -0.000008
    24  H   -0.000013   0.000195   0.000003  -0.000165  -0.000004  -0.000000
    25  H   -0.000000  -0.000048  -0.000001   0.000076   0.000004   0.000000
    26  C    0.000014  -0.000601   0.000001   0.000719   0.000025  -0.000004
    27  H   -0.000001   0.000003   0.000000  -0.000004   0.000001  -0.000000
    28  H   -0.000001  -0.000013  -0.000000   0.000025  -0.000014   0.000001
              19         20         21         22         23         24
     1  C   -0.045990   0.004447   0.586125  -0.029833  -0.089663   0.013225
     2  C    0.503192  -0.029323  -0.072182   0.006096   0.222482  -0.060882
     3  H    0.007666  -0.000114  -0.034165  -0.006830   0.005961  -0.000110
     4  H   -0.034540  -0.004873   0.004993  -0.000065  -0.012228  -0.003945
     5  C   -0.026183   0.000345   0.003339   0.000046   0.010639   0.000273
     6  C   -0.065430  -0.003114   0.017436   0.000131  -0.015425  -0.008072
     7  H    0.000345   0.000010  -0.000186  -0.000001   0.003397  -0.002184
     8  H   -0.012884  -0.000087   0.004889   0.000053  -0.003039   0.000456
     9  C    0.010631   0.003391  -0.003653  -0.000104   0.002500   0.000411
    10  H    0.000841   0.000378  -0.000096  -0.000000  -0.000089  -0.000025
    11  H    0.000268  -0.002180   0.000035  -0.000013   0.000411  -0.000018
    12  C    0.003339  -0.000186  -0.000386  -0.000000  -0.003653   0.000034
    13  H    0.000046  -0.000001  -0.000000   0.000000  -0.000103  -0.000013
    14  C    0.001612   0.000329  -0.000209  -0.000001   0.002902   0.000195
    15  H   -0.000052   0.000002   0.000002   0.000000  -0.000009   0.000003
    16  C   -0.009356  -0.002307   0.001188   0.000014  -0.001472  -0.000165
    17  H   -0.004222   0.001957   0.000339  -0.000001   0.000481  -0.000004
    18  H    0.000320  -0.000017  -0.000042  -0.000001  -0.000008  -0.000000
    19  C    5.205222   0.430939   0.285721  -0.040994  -0.062309   0.009733
    20  H    0.430939   0.482502  -0.033873  -0.003747   0.003403  -0.000035
    21  C    0.285721  -0.033873   5.009836   0.428846   0.036944  -0.004545
    22  H   -0.040994  -0.003747   0.428846   0.497264  -0.000370   0.000034
    23  C   -0.062309   0.003403   0.036944  -0.000370   4.979357   0.464862
    24  H    0.009733  -0.000035  -0.004545   0.000034   0.464862   0.533794
    25  H   -0.006932  -0.000240   0.001306  -0.000071   0.387530  -0.021910
    26  C   -0.007162  -0.001219  -0.051806   0.005470   0.351743  -0.055782
    27  H   -0.002767   0.000039   0.005059  -0.000138  -0.041836  -0.000590
    28  H    0.010440   0.000013  -0.015083  -0.000440  -0.029480  -0.008117
              25         26         27         28
     1  C    0.005576   0.278782  -0.034196  -0.031124
     2  C   -0.040781  -0.061459   0.011536  -0.002236
     3  H   -0.000023  -0.032678  -0.004283   0.001353
     4  H   -0.001007   0.004475  -0.000101  -0.000195
     5  C    0.000841  -0.009355   0.000320  -0.004227
     6  C    0.001923   0.016090   0.000266   0.000890
     7  H    0.000378  -0.002309  -0.000017   0.001957
     8  H   -0.000360   0.000416   0.000401  -0.003636
     9  C   -0.000089  -0.001472  -0.000008   0.000482
    10  H    0.000010   0.000076   0.000000   0.000004
    11  H   -0.000025  -0.000165  -0.000000  -0.000004
    12  C   -0.000097   0.001188  -0.000042   0.000339
    13  H   -0.000000   0.000014  -0.000001  -0.000001
    14  C   -0.000048  -0.000601   0.000003  -0.000013
    15  H   -0.000001   0.000001   0.000000  -0.000000
    16  C    0.000076   0.000719  -0.000004   0.000025
    17  H    0.000004   0.000025   0.000001  -0.000014
    18  H    0.000000  -0.000004  -0.000000   0.000001
    19  C   -0.006932  -0.007162  -0.002767   0.010440
    20  H   -0.000240  -0.001219   0.000039   0.000013
    21  C    0.001306  -0.051806   0.005059  -0.015083
    22  H   -0.000071   0.005470  -0.000138  -0.000440
    23  C    0.387530   0.351743  -0.041836  -0.029480
    24  H   -0.021910  -0.055782  -0.000590  -0.008117
    25  H    0.580756  -0.023636  -0.010563   0.007160
    26  C   -0.023636   4.942978   0.427711   0.393565
    27  H   -0.010563   0.427711   0.545888  -0.023095
    28  H    0.007160   0.393565  -0.023095   0.586841
          Atomic-Atomic Spin Densities.
               1          2          3          4          5          6
     1  C    0.000000   0.000000  -0.000000  -0.000000  -0.000000  -0.000000
     2  C    0.000000   0.000000   0.000000  -0.000000  -0.000000  -0.000000
     3  H   -0.000000   0.000000  -0.000000   0.000000   0.000000  -0.000000
     4  H   -0.000000  -0.000000   0.000000   0.000000   0.000000   0.000000
     5  C   -0.000000  -0.000000   0.000000   0.000000  -0.000000   0.000000
     6  C   -0.000000  -0.000000  -0.000000   0.000000   0.000000   0.000000
     7  H    0.000000  -0.000000  -0.000000  -0.000000   0.000000  -0.000000
     8  H    0.000000  -0.000000   0.000000   0.000000   0.000000   0.000000
     9  C    0.000000  -0.000000   0.000000   0.000000   0.000000  -0.000000
    10  H    0.000000  -0.000000   0.000000  -0.000000   0.000000  -0.000000
    11  H   -0.000000   0.000000  -0.000000   0.000000  -0.000000   0.000000
    12  C    0.000000   0.000000  -0.000000  -0.000000   0.000000  -0.000000
    13  H   -0.000000  -0.000000  -0.000000  -0.000000   0.000000  -0.000000
    14  C   -0.000000   0.000000   0.000000  -0.000000   0.000000  -0.000000
    15  H   -0.000000   0.000000  -0.000000  -0.000000   0.000000  -0.000000
    16  C    0.000000  -0.000000  -0.000000  -0.000000  -0.000000   0.000000
    17  H   -0.000000  -0.000000   0.000000   0.000000   0.000000   0.000000
    18  H    0.000000   0.000000  -0.000000  -0.000000  -0.000000   0.000000
    19  C   -0.000000  -0.000000  -0.000000  -0.000000   0.000000   0.000000
    20  H   -0.000000   0.000000   0.000000  -0.000000   0.000000   0.000000
    21  C   -0.000000   0.000000   0.000000   0.000000  -0.000000  -0.000000
    22  H   -0.000000   0.000000   0.000000   0.000000   0.000000   0.000000
    23  C   -0.000000   0.000000  -0.000000   0.000000   0.000000   0.000000
    24  H    0.000000  -0.000000   0.000000   0.000000  -0.000000  -0.000000
    25  H    0.000000  -0.000000  -0.000000  -0.000000  -0.000000   0.000000
    26  C   -0.000000  -0.000000   0.000000   0.000000  -0.000000   0.000000
    27  H    0.000000  -0.000000   0.000000   0.000000  -0.000000  -0.000000
    28  H    0.000000  -0.000000  -0.000000  -0.000000   0.000000   0.000000
               7          8          9         10         11         12
     1  C    0.000000   0.000000   0.000000   0.000000  -0.000000   0.000000
     2  C   -0.000000  -0.000000  -0.000000  -0.000000   0.000000   0.000000
     3  H   -0.000000   0.000000   0.000000   0.000000  -0.000000  -0.000000
     4  H   -0.000000   0.000000   0.000000  -0.000000   0.000000  -0.000000
     5  C    0.000000   0.000000   0.000000   0.000000  -0.000000   0.000000
     6  C   -0.000000   0.000000  -0.000000  -0.000000   0.000000  -0.000000
     7  H    0.000000   0.000000  -0.000000   0.000000  -0.000000  -0.000000
     8  H    0.000000  -0.000000  -0.000000   0.000000  -0.000000  -0.000000
     9  C   -0.000000  -0.000000   0.000001   0.000000  -0.000000  -0.000000
    10  H    0.000000   0.000000   0.000000  -0.000000   0.000000   0.000000
    11  H   -0.000000  -0.000000  -0.000000   0.000000  -0.000000   0.000000
    12  C   -0.000000  -0.000000  -0.000000   0.000000   0.000000   0.000000
    13  H    0.000000  -0.000000  -0.000000   0.000000  -0.000000  -0.000000
    14  C    0.000000   0.000000   0.000000  -0.000000  -0.000000   0.000000
    15  H   -0.000000  -0.000000   0.000000   0.000000  -0.000000  -0.000000
    16  C   -0.000000  -0.000000  -0.000000   0.000000   0.000000  -0.000000
    17  H    0.000000   0.000000  -0.000000  -0.000000  -0.000000  -0.000000
    18  H   -0.000000  -0.000000  -0.000000   0.000000   0.000000   0.000000
    19  C   -0.000000  -0.000000  -0.000000   0.000000   0.000000   0.000000
    20  H    0.000000   0.000000  -0.000000  -0.000000   0.000000  -0.000000
    21  C    0.000000   0.000000   0.000000  -0.000000  -0.000000  -0.000000
    22  H    0.000000   0.000000   0.000000  -0.000000   0.000000  -0.000000
    23  C    0.000000  -0.000000  -0.000000   0.000000  -0.000000  -0.000000
    24  H   -0.000000  -0.000000   0.000000  -0.000000   0.000000   0.000000
    25  H    0.000000   0.000000  -0.000000   0.000000   0.000000   0.000000
    26  C   -0.000000   0.000000   0.000000  -0.000000   0.000000   0.000000
    27  H    0.000000   0.000000   0.000000  -0.000000  -0.000000   0.000000
    28  H   -0.000000  -0.000000  -0.000000   0.000000   0.000000  -0.000000
              13         14         15         16         17         18
     1  C   -0.000000  -0.000000  -0.000000   0.000000  -0.000000   0.000000
     2  C   -0.000000   0.000000   0.000000  -0.000000  -0.000000   0.000000
     3  H   -0.000000   0.000000  -0.000000  -0.000000   0.000000  -0.000000
     4  H   -0.000000  -0.000000  -0.000000  -0.000000   0.000000  -0.000000
     5  C    0.000000   0.000000   0.000000  -0.000000   0.000000  -0.000000
     6  C   -0.000000  -0.000000  -0.000000   0.000000   0.000000   0.000000
     7  H    0.000000   0.000000  -0.000000  -0.000000   0.000000  -0.000000
     8  H   -0.000000   0.000000  -0.000000  -0.000000   0.000000  -0.000000
     9  C   -0.000000   0.000000   0.000000  -0.000000  -0.000000  -0.000000
    10  H    0.000000  -0.000000   0.000000   0.000000  -0.000000   0.000000
    11  H   -0.000000  -0.000000  -0.000000   0.000000  -0.000000   0.000000
    12  C   -0.000000   0.000000  -0.000000  -0.000000  -0.000000   0.000000
    13  H   -0.000000   0.000000  -0.000000   0.000000   0.000000  -0.000000
    14  C    0.000000  -0.000000   0.000000   0.000000  -0.000000   0.000000
    15  H   -0.000000   0.000000   0.000000  -0.000000   0.000000  -0.000000
    16  C    0.000000   0.000000  -0.000000  -0.000001   0.000000   0.000000
    17  H    0.000000  -0.000000   0.000000   0.000000   0.000000  -0.000000
    18  H   -0.000000   0.000000  -0.000000   0.000000  -0.000000   0.000000
    19  C   -0.000000   0.000000  -0.000000   0.000000  -0.000000   0.000000
    20  H   -0.000000  -0.000000   0.000000   0.000000   0.000000  -0.000000
    21  C    0.000000  -0.000000   0.000000  -0.000000   0.000000  -0.000000
    22  H   -0.000000   0.000000   0.000000  -0.000000   0.000000  -0.000000
    23  C   -0.000000  -0.000000  -0.000000  -0.000000   0.000000  -0.000000
    24  H   -0.000000   0.000000   0.000000  -0.000000  -0.000000   0.000000
    25  H    0.000000  -0.000000  -0.000000   0.000000  -0.000000   0.000000
    26  C    0.000000  -0.000000   0.000000  -0.000000  -0.000000   0.000000
    27  H    0.000000  -0.000000   0.000000  -0.000000  -0.000000   0.000000
    28  H   -0.000000   0.000000  -0.000000   0.000000  -0.000000   0.000000
              19         20         21         22         23         24
     1  C   -0.000000  -0.000000  -0.000000  -0.000000  -0.000000   0.000000
     2  C   -0.000000   0.000000   0.000000   0.000000   0.000000  -0.000000
[...]
     1  C    0.000000  -0.000000   0.000000   0.000000
     2  C   -0.000000  -0.000000  -0.000000  -0.000000
     3  H   -0.000000   0.000000   0.000000  -0.000000
     4  H   -0.000000   0.000000   0.000000  -0.000000
     5  C   -0.000000  -0.000000  -0.000000   0.000000
     6  C    0.000000   0.000000  -0.000000   0.000000
     7  H    0.000000  -0.000000   0.000000  -0.000000
     8  H    0.000000   0.000000   0.000000  -0.000000
     9  C   -0.000000   0.000000   0.000000  -0.000000
    10  H    0.000000  -0.000000  -0.000000   0.000000
    11  H    0.000000   0.000000  -0.000000   0.000000
    12  C    0.000000   0.000000   0.000000  -0.000000
    13  H    0.000000   0.000000   0.000000  -0.000000
    14  C   -0.000000  -0.000000  -0.000000   0.000000
    15  H   -0.000000   0.000000   0.000000  -0.000000
    16  C    0.000000  -0.000000  -0.000000   0.000000
    17  H   -0.000000  -0.000000  -0.000000  -0.000000
    18  H    0.000000   0.000000   0.000000   0.000000
    19  C   -0.000000   0.000000   0.000000  -0.000000
    20  H   -0.000000   0.000000   0.000000  -0.000000
    21  C    0.000000  -0.000000  -0.000000   0.000000
    22  H   -0.000000  -0.000000   0.000000  -0.000000
    23  C   -0.000000   0.000000   0.000000   0.000000
    24  H   -0.000000  -0.000000  -0.000000  -0.000000
    25  H    0.000001  -0.000000  -0.000000   0.000000
    26  C   -0.000000   0.000001  -0.000000  -0.000000
    27  H   -0.000000  -0.000000  -0.000000   0.000000
    28  H    0.000000  -0.000000   0.000000  -0.000000
 Mulliken charges and spin densities:
               1          2
     1  C   -0.209346  -0.000000
     2  C   -0.196873   0.000000
     3  H    0.141524  -0.000000
     4  H    0.171745   0.000000
     5  C   -0.151299   0.000000
     6  C   -0.196942   0.000000
     7  H    0.153479   0.000000
     8  H    0.171720  -0.000000
     9  C   -0.212930   0.000001
    10  H    0.120224  -0.000000
    11  H    0.143335  -0.000000
    12  C   -0.169788   0.000000
    13  H    0.144629  -0.000000
    14  C   -0.209417  -0.000000
    15  H    0.141536   0.000000
    16  C   -0.175591  -0.000000
    17  H    0.114611   0.000000
    18  H    0.126409   0.000000
    19  C   -0.151494  -0.000000
    20  H    0.153564  -0.000000
    21  C   -0.169830  -0.000000
    22  H    0.144654   0.000000
    23  C   -0.212929  -0.000001
    24  H    0.143377   0.000000
    25  H    0.120224   0.000000
    26  C   -0.175606   0.000001
    27  H    0.126418  -0.000000
    28  H    0.114596  -0.000000
 Sum of Mulliken charges =  -0.00000   0.00000
 Mulliken charges and spin densities with hydrogens summed into heavy atoms:
               1          2
     1  C   -0.067822  -0.000000
     2  C   -0.025128   0.000000
     5  C    0.002180   0.000000
     6  C   -0.025222  -0.000000
     9  C    0.050629   0.000000
    12  C   -0.025159   0.000000
    14  C   -0.067881  -0.000000
    16  C    0.065429  -0.000000
    19  C    0.002070  -0.000000
    21  C   -0.025176   0.000000
    23  C    0.050672  -0.000000
    26  C    0.065408   0.000000
 Electronic spatial extent (au):  <R**2>=           2228.8703
 Charge=             -0.0000 electrons
 Dipole moment (field-independent basis, Debye):
    X=              0.0003    Y=             -0.0009    Z=             -0.0001  Tot=              0.0009
 Quadrupole moment (field-independent basis, Debye-Ang):
   XX=            -72.2470   YY=            -69.8875   ZZ=            -77.2377
   XY=             -3.3405   XZ=             -3.3483   YZ=             -1.5669
 Traceless Quadrupole moment (field-independent basis, Debye-Ang):
   XX=              0.8770   YY=              3.2365   ZZ=             -4.1136
   XY=             -3.3405   XZ=             -3.3483   YZ=             -1.5669
 Octapole moment (field-independent basis, Debye-Ang**2):
  XXX=              0.0124  YYY=             -0.0067  ZZZ=             -0.0000  XYY=             -0.0027
  XXY=             -0.0036  XXZ=             -0.0010  XZZ=              0.0003  YZZ=              0.0003
  YYZ=             -0.0012  XYZ=              0.0007
 Hexadecapole moment (field-independent basis, Debye-Ang**3):
 XXXX=          -2051.4431 YYYY=           -627.7741 ZZZZ=           -353.9242 XXXY=           -104.2154
 XXXZ=           -126.0734 YYYX=            -59.4724 YYYZ=             -3.1589 ZZZX=            -75.5956
 ZZZY=            -13.4153 XXYY=           -444.7629 XXZZ=           -424.9008 YYZZ=           -178.9302
 XXYZ=            -21.4467 YYXZ=            -27.8982 ZZXY=            -43.3577
 N-N= 6.858850493012D+02 E-N=-2.453570570745D+03  KE= 4.642707253094D+02
                          Isotropic Fermi Contact Couplings
        Atom                 a.u.       MegaHertz       Gauss      10(-4) cm-1
     1  C(13)              0.00000       0.00002       0.00001       0.00001
     2  C(13)             -0.00000      -0.00001      -0.00000      -0.00000
     3  H(1)              -0.00000      -0.00004      -0.00001      -0.00001
     4  H(1)               0.00000       0.00006       0.00002       0.00002
     5  C(13)             -0.00000      -0.00006      -0.00002      -0.00002
     6  C(13)              0.00000       0.00004       0.00001       0.00001
     7  H(1)               0.00000       0.00001       0.00000       0.00000
     8  H(1)              -0.00000      -0.00007      -0.00003      -0.00002
     9  C(13)              0.00000       0.00026       0.00009       0.00009
    10  H(1)              -0.00000      -0.00018      -0.00006      -0.00006
    11  H(1)              -0.00000      -0.00021      -0.00008      -0.00007
    12  C(13)              0.00000       0.00008       0.00003       0.00003
    13  H(1)              -0.00000      -0.00005      -0.00002      -0.00002
    14  C(13)             -0.00000      -0.00004      -0.00002      -0.00001
    15  H(1)               0.00000       0.00006       0.00002       0.00002
    16  C(13)             -0.00000      -0.00015      -0.00005      -0.00005
    17  H(1)               0.00000       0.00006       0.00002       0.00002
    18  H(1)               0.00000       0.00001       0.00000       0.00000
    19  C(13)              0.00000       0.00003       0.00001       0.00001
    20  H(1)               0.00000       0.00000       0.00000       0.00000
    21  C(13)             -0.00000      -0.00006      -0.00002      -0.00002
    22  H(1)               0.00000       0.00004       0.00001       0.00001
    23  C(13)             -0.00000      -0.00027      -0.00010      -0.00009
    24  H(1)               0.00000       0.00022       0.00008       0.00007
    25  H(1)               0.00000       0.00020       0.00007       0.00007
    26  C(13)              0.00000       0.00016       0.00006       0.00005
    27  H(1)              -0.00000      -0.00002      -0.00001      -0.00001
    28  H(1)              -0.00000      -0.00008      -0.00003      -0.00003
 --------------------------------------------------------
       Center         ----  Spin Dipole Couplings  ----
                      3XX-RR        3YY-RR        3ZZ-RR
 --------------------------------------------------------
     1   Atom        0.000000      0.000000     -0.000000
     2   Atom       -0.000000     -0.000000      0.000000
     3   Atom       -0.000000      0.000000      0.000000
     4   Atom       -0.000000      0.000000      0.000000
     5   Atom       -0.000000     -0.000000      0.000000
     6   Atom        0.000000     -0.000000     -0.000000
     7   Atom       -0.000000     -0.000000      0.000000
     8   Atom        0.000000     -0.000000     -0.000000
     9   Atom        0.000000     -0.000000      0.000000
    10   Atom       -0.000000     -0.000000      0.000000
    11   Atom       -0.000000      0.000000     -0.000000
    12   Atom       -0.000000     -0.000000      0.000000
    13   Atom       -0.000000      0.000000     -0.000000
    14   Atom       -0.000000      0.000000     -0.000000
    15   Atom       -0.000000      0.000000     -0.000000
    16   Atom       -0.000000      0.000000     -0.000000
    17   Atom        0.000000      0.000000     -0.000000
    18   Atom       -0.000000     -0.000000      0.000000
    19   Atom        0.000000      0.000000     -0.000000
    20   Atom        0.000000      0.000000     -0.000000
    21   Atom        0.000000     -0.000000     -0.000000
    22   Atom        0.000000     -0.000000      0.000000
    23   Atom       -0.000000      0.000000     -0.000000
    24   Atom        0.000000     -0.000000      0.000000
    25   Atom        0.000000      0.000000     -0.000000
    26   Atom        0.000000     -0.000000      0.000000
    27   Atom        0.000000     -0.000000     -0.000000
    28   Atom       -0.000000     -0.000000      0.000000
 --------------------------------------------------------
                        XY            XZ            YZ
 --------------------------------------------------------
     1   Atom       -0.000000     -0.000000     -0.000000
     2   Atom        0.000000      0.000000      0.000000
     3   Atom       -0.000000     -0.000000     -0.000000
     4   Atom       -0.000000     -0.000000      0.000000
     5   Atom        0.000000      0.000000      0.000000
     6   Atom       -0.000000     -0.000000     -0.000000
     7   Atom       -0.000000      0.000000      0.000000
     8   Atom        0.000000     -0.000000     -0.000000
     9   Atom        0.000000      0.000000      0.000000
    10   Atom       -0.000000      0.000000     -0.000000
    11   Atom        0.000000      0.000000      0.000000
    12   Atom        0.000000     -0.000000      0.000000
    13   Atom        0.000000     -0.000000     -0.000000
    14   Atom        0.000000     -0.000000      0.000000
    15   Atom       -0.000000      0.000000      0.000000
    16   Atom        0.000000      0.000000     -0.000000
    17   Atom       -0.000000     -0.000000     -0.000000
    18   Atom        0.000000     -0.000000      0.000000
    19   Atom       -0.000000     -0.000000     -0.000000
    20   Atom        0.000000     -0.000000     -0.000000
    21   Atom       -0.000000      0.000000     -0.000000
    22   Atom       -0.000000      0.000000     -0.000000
    23   Atom       -0.000000     -0.000000     -0.000000
    24   Atom       -0.000000     -0.000000     -0.000000
    25   Atom        0.000000     -0.000000      0.000000
    26   Atom       -0.000000     -0.000000      0.000000
    27   Atom       -0.000000      0.000000     -0.000000
    28   Atom        0.000000      0.000000      0.000000
 --------------------------------------------------------


 ---------------------------------------------------------------------------------
              Anisotropic Spin Dipole Couplings in Principal Axis System
 ---------------------------------------------------------------------------------

       Atom             a.u.   MegaHertz   Gauss  10(-4) cm-1        Axes

              Baa    -0.0000    -0.000    -0.000    -0.000  0.0786  0.3518  0.9328
     1 C(13)  Bbb     0.0000     0.000     0.000     0.000  0.2565  0.8970 -0.3599
              Bcc     0.0000     0.000     0.000     0.000  0.9633 -0.2675  0.0197
 
              Baa    -0.0000    -0.000    -0.000    -0.000  0.7995  0.3324 -0.5003
     2 C(13)  Bbb    -0.0000    -0.000    -0.000    -0.000 -0.4667  0.8681 -0.1689
              Bcc     0.0000     0.000     0.000     0.000  0.3782  0.3686  0.8492
 
              Baa    -0.0000    -0.000    -0.000    -0.000  0.8672  0.2074  0.4527
     3 H(1)   Bbb    -0.0000    -0.000    -0.000    -0.000 -0.2985  0.9442  0.1392
              Bcc     0.0000     0.000     0.000     0.000 -0.3985 -0.2559  0.8808
 
              Baa    -0.0000    -0.000    -0.000    -0.000  0.9948  0.0940  0.0381
     4 H(1)   Bbb    -0.0000    -0.000    -0.000    -0.000 -0.0871  0.9845 -0.1521
              Bcc     0.0000     0.000     0.000     0.000 -0.0518  0.1480  0.9876
 
              Baa    -0.0000    -0.000    -0.000    -0.000  0.7565  0.1737 -0.6305
     5 C(13)  Bbb    -0.0000    -0.000    -0.000    -0.000 -0.3981  0.8872 -0.2331
              Bcc     0.0000     0.000     0.000     0.000  0.5189  0.4273  0.7403
 
              Baa    -0.0000    -0.000    -0.000    -0.000  0.2064  0.7351  0.6457
     6 C(13)  Bbb     0.0000     0.000     0.000     0.000  0.6808 -0.5819  0.4449
              Bcc     0.0000     0.000     0.000     0.000  0.7028  0.3478 -0.6206
 
              Baa    -0.0000    -0.000    -0.000    -0.000  0.5945  0.7022 -0.3917
     7 H(1)   Bbb     0.0000     0.000     0.000     0.000 -0.3528  0.6656  0.6577
              Bcc     0.0000     0.000     0.000     0.000  0.7226 -0.2528  0.6434
 
              Baa    -0.0000    -0.000    -0.000    -0.000  0.0505  0.4099  0.9107
     8 H(1)   Bbb    -0.0000    -0.000    -0.000    -0.000 -0.1325  0.9066 -0.4007
              Bcc     0.0000     0.000     0.000     0.000  0.9899  0.1004 -0.1001
 
              Baa    -0.0000    -0.000    -0.000    -0.000 -0.5506  0.8344 -0.0246
     9 C(13)  Bbb     0.0000     0.000     0.000     0.000 -0.5468 -0.3382  0.7659
              Bcc     0.0000     0.000     0.000     0.000  0.6308  0.4352  0.6424
 
              Baa    -0.0000    -0.000    -0.000    -0.000  0.8917 -0.2095 -0.4011
    10 H(1)   Bbb    -0.0000    -0.000    -0.000    -0.000  0.2232  0.9747 -0.0130
              Bcc     0.0000     0.000     0.000     0.000  0.3937 -0.0779  0.9159
 
              Baa    -0.0000    -0.000    -0.000    -0.000  0.8294 -0.5278  0.1830
    11 H(1)   Bbb    -0.0000    -0.000    -0.000    -0.000 -0.2013  0.0231  0.9793
              Bcc     0.0000     0.000     0.000     0.000  0.5211  0.8491  0.0871
 
              Baa    -0.0000    -0.000    -0.000    -0.000  0.7499 -0.6468  0.1388
    12 C(13)  Bbb    -0.0000    -0.000    -0.000    -0.000  0.6410  0.7624  0.0891
              Bcc     0.0000     0.000     0.000     0.000 -0.1634  0.0221  0.9863
 
              Baa    -0.0000    -0.000    -0.000    -0.000  0.8552 -0.4196  0.3043
    13 H(1)   Bbb    -0.0000    -0.000    -0.000    -0.000 -0.2148  0.2473  0.9448
              Bcc     0.0000     0.000     0.000     0.000  0.4717  0.8734 -0.1214
 
              Baa    -0.0000    -0.000    -0.000    -0.000  0.7736 -0.2471  0.5835
    14 C(13)  Bbb     0.0000     0.000     0.000     0.000  0.6161  0.5083 -0.6017
              Bcc     0.0000     0.000     0.000     0.000 -0.1479  0.8250  0.5454
 
              Baa    -0.0000    -0.000    -0.000    -0.000 -0.5716 -0.1878  0.7988
    15 H(1)   Bbb     0.0000     0.000     0.000     0.000  0.7971 -0.3581  0.4862
              Bcc     0.0000     0.000     0.000     0.000  0.1947  0.9146  0.3544
 
              Baa    -0.0000    -0.000    -0.000    -0.000 -0.6999  0.0658  0.7112
    16 C(13)  Bbb     0.0000     0.000     0.000     0.000  0.7135  0.0186  0.7004
              Bcc     0.0000     0.000     0.000     0.000  0.0328  0.9977 -0.0599
 
              Baa    -0.0000    -0.000    -0.000    -0.000  0.3191  0.3581  0.8774
    17 H(1)   Bbb     0.0000     0.000     0.000     0.000  0.8707  0.2547 -0.4206
              Bcc     0.0000     0.000     0.000     0.000 -0.3741  0.8983 -0.2305
 
              Baa    -0.0000    -0.000    -0.000    -0.000  0.6814 -0.6494  0.3375
    18 H(1)   Bbb     0.0000     0.000     0.000     0.000 -0.5262 -0.1143  0.8426
              Bcc     0.0000     0.000     0.000     0.000  0.5087  0.7518  0.4196
 
              Baa    -0.0000    -0.000    -0.000    -0.000  0.4863  0.2980  0.8214
    19 C(13)  Bbb     0.0000     0.000     0.000     0.000 -0.3166  0.9363 -0.1523
              Bcc     0.0000     0.000     0.000     0.000  0.8144  0.1860 -0.5496
 
              Baa    -0.0000    -0.000    -0.000    -0.000 -0.6888  0.7179  0.1008
    20 H(1)   Bbb    -0.0000    -0.000    -0.000    -0.000  0.3350  0.1919  0.9225
              Bcc     0.0000     0.000     0.000     0.000  0.6430  0.6691 -0.3726
 
              Baa    -0.0000    -0.000    -0.000    -0.000 -0.6751 -0.0923  0.7319
    21 C(13)  Bbb    -0.0000    -0.000    -0.000    -0.000  0.0938  0.9733  0.2093
              Bcc     0.0000     0.000     0.000     0.000  0.7317 -0.2100  0.6485
 
              Baa    -0.0000    -0.000    -0.000    -0.000  0.4670  0.8791 -0.0951
    22 H(1)   Bbb     0.0000     0.000     0.000     0.000  0.6757 -0.4241 -0.6029
              Bcc     0.0000     0.000     0.000     0.000  0.5704 -0.2173  0.7921
 
              Baa    -0.0000    -0.000    -0.000    -0.000  0.6581  0.4625  0.5942
    23 C(13)  Bbb    -0.0000    -0.000    -0.000    -0.000 -0.5114 -0.3047  0.8035
              Bcc     0.0000     0.000     0.000     0.000 -0.5527  0.8326 -0.0360
 
              Baa    -0.0000    -0.000    -0.000    -0.000  0.5437  0.8346  0.0884
    24 H(1)   Bbb     0.0000     0.000     0.000     0.000 -0.2131  0.0354  0.9764
              Bcc     0.0000     0.000     0.000     0.000  0.8118 -0.5497  0.1971
 
              Baa    -0.0000    -0.000    -0.000    -0.000  0.3778 -0.0684  0.9233
    25 H(1)   Bbb     0.0000     0.000     0.000     0.000  0.5937  0.7832 -0.1849
              Bcc     0.0000     0.000     0.000     0.000  0.7105 -0.6180 -0.3365
 
              Baa    -0.0000    -0.000    -0.000    -0.000  0.0364  0.9974 -0.0629
    26 C(13)  Bbb    -0.0000    -0.000    -0.000    -0.000  0.7094  0.0185  0.7046
              Bcc     0.0000     0.000     0.000     0.000 -0.7039  0.0703  0.7068
 
              Baa    -0.0000    -0.000    -0.000    -0.000  0.5310  0.7890  0.3089
    27 H(1)   Bbb    -0.0000    -0.000    -0.000    -0.000 -0.4451 -0.0505  0.8940
              Bcc     0.0000     0.000     0.000     0.000  0.7210 -0.6123  0.3244
 
              Baa    -0.0000    -0.000    -0.000    -0.000 -0.1088  0.9435 -0.3129
    28 H(1)   Bbb    -0.0000    -0.000    -0.000    -0.000  0.9495  0.0054 -0.3138
              Bcc     0.0000     0.000     0.000     0.000  0.2944  0.3312  0.8964
 

 ---------------------------------------------------------------------------------

 No NMR shielding tensors so no spin-rotation constants.
 Leave Link  601 at Mon Aug  3 15:32:08 2020, MaxMem=  6442450944 cpu:               8.0 elap:               0.4
 (Enter /scratch/scicomp/CentOS/7.3.1611/Haswell/software/Gaussian/g16/l9999.exe)
 1\1\GINC-ATLAS-205\SP\UwB97XD\def2TZVP\C12H16\BOCHEN\03-Aug-2020\0\\#p
  uwb97xd guess=mix def2tzvp # scrf=(iefpcm,solvent=Cyclohexane,read) n
 osym 6d 10f\\endo-2 xp-pcm for eta=3\\0,1\C,0,-3.122592,-0.438388,0.24
 9109\C,0,-0.621801,-0.222716,-1.060943\H,0,-4.085324,-0.547212,0.73501
 6\H,0,0.349284,-0.128633,-1.527138\C,0,1.104299,1.412726,0.711533\C,0,
 0.621801,0.222716,1.060943\H,0,0.516259,2.312051,0.844298\H,0,-0.34928
 4,0.128633,1.527138\C,0,1.489396,-1.000996,1.019772\H,0,1.961797,-1.06
 585,2.008075\H,0,0.88901,-1.902931,0.914465\C,0,2.428355,1.519137,0.10
 794\H,0,2.83616,2.506797,-0.071809\C,0,3.122592,0.438388,-0.249109\H,0
 ,4.085324,0.547212,-0.735016\C,0,2.589439,-0.95353,-0.045302\H,0,2.226
 867,-1.339383,-1.006111\H,0,3.400958,-1.623074,0.247309\C,0,-1.104299,
 -1.412726,-0.711533\H,0,-0.516259,-2.312051,-0.844298\C,0,-2.428355,-1
 .519137,-0.10794\H,0,-2.83616,-2.506797,0.071809\C,0,-1.489396,1.00099
 6,-1.019772\H,0,-0.88901,1.902931,-0.914465\H,0,-1.961797,1.06585,-2.0
 08075\C,0,-2.589439,0.95353,0.045302\H,0,-3.400958,1.623074,-0.247309\
 H,0,-2.226867,1.339383,1.006111\\Version=ES64L-G16RevB.01\HF=-466.8444
 271\S2=0.\S2-1=0.\S2A=0.\RMSD=5.399e-09\Dipole=0.0001361,-0.0003433,-0
 .0000229\Quadrupole=0.6520563,2.4062892,-3.0583455,-2.4836132,-2.48941
 56,-1.1649408\PG=CI [X(C12H16)]\\@


 THE HURRIEDER I GO, THE BEHINDER I GET.
 Job cpu time:       0 days  2 hours  8 minutes  6.2 seconds.
 Elapsed time:       0 days  0 hours  5 minutes 23.4 seconds.
 File lengths (MBytes):  RWF=    624 Int=      0 D2E=      0 Chk=     23 Scr=      1
 Normal termination of Gaussian 16 at Mon Aug  3 15:32:08 2020.
