 Entering Gaussian System, Link 0=g16
 Input=meso-TS_25_2_xp-Gcav.com
 Output=meso-TS_25_2_xp-Gcav.log
 Initial command:
 /scratch/scicomp/CentOS/7.3.1611/Haswell/software/Gaussian/g16/l1.exe "/scratch/bochen/cyclohexadiene-dimerization/wb97xd-def2tzvp/xp-pcm/meso/Gau-81736.inp" -scrdir="/scratch/bochen/cyclohexadiene-dimerization/wb97xd-def2tzvp/xp-pcm/meso/"
 Entering Link 1 = /scratch/scicomp/CentOS/7.3.1611/Haswell/software/Gaussian/g16/l1.exe PID=     81737.
  
 Copyright (c) 1988-2017, Gaussian, Inc.  All Rights Reserved.
  
 This is part of the Gaussian(R) 16 program.  It is based on
 the Gaussian(R) 09 system (copyright 2009, Gaussian, Inc.),
 the Gaussian(R) 03 system (copyright 2003, Gaussian, Inc.),
 the Gaussian(R) 98 system (copyright 1998, Gaussian, Inc.),
 the Gaussian(R) 94 system (copyright 1995, Gaussian, Inc.),
 the Gaussian 92(TM) system (copyright 1992, Gaussian, Inc.),
 the Gaussian 90(TM) system (copyright 1990, Gaussian, Inc.),
 the Gaussian 88(TM) system (copyright 1988, Gaussian, Inc.),
 the Gaussian 86(TM) system (copyright 1986, Carnegie Mellon
 University), and the Gaussian 82(TM) system (copyright 1983,
 Carnegie Mellon University). Gaussian is a federally registered
 trademark of Gaussian, Inc.
  
 This software contains proprietary and confidential information,
 including trade secrets, belonging to Gaussian, Inc.
  
 This software is provided under written license and may be
 used, copied, transmitted, or stored only in accord with that
 written license.
  
 The following legend is applicable only to US Government
 contracts under FAR:
  
                    RESTRICTED RIGHTS LEGEND
  
 Use, reproduction and disclosure by the US Government is
 subject to restrictions as set forth in subparagraphs (a)
 and (c) of the Commercial Computer Software - Restricted
 Rights clause in FAR 52.227-19.
  
 Gaussian, Inc.
 340 Quinnipiac St., Bldg. 40, Wallingford CT 06492
  
  
 ---------------------------------------------------------------
 Warning -- This program may not be used in any manner that
 competes with the business of Gaussian, Inc. or will provide
 assistance to any competitor of Gaussian, Inc.  The licensee
 of this program is prohibited from giving any competitor of
 Gaussian, Inc. access to this program.  By using this program,
 the user acknowledges that Gaussian, Inc. is engaged in the
 business of creating and licensing software in the field of
 computational chemistry and represents and warrants to the
 licensee that it is not a competitor of Gaussian, Inc. and that
 it will not use this program in any manner prohibited above.
 ---------------------------------------------------------------
  

 Cite this work as:
 Gaussian 16, Revision B.01,
 M. J. Frisch, G. W. Trucks, H. B. Schlegel, G. E. Scuseria, 
 M. A. Robb, J. R. Cheeseman, G. Scalmani, V. Barone, 
 G. A. Petersson, H. Nakatsuji, X. Li, M. Caricato, A. V. Marenich, 
 J. Bloino, B. G. Janesko, R. Gomperts, B. Mennucci, H. P. Hratchian, 
 J. V. Ortiz, A. F. Izmaylov, J. L. Sonnenberg, D. Williams-Young, 
 F. Ding, F. Lipparini, F. Egidi, J. Goings, B. Peng, A. Petrone, 
 T. Henderson, D. Ranasinghe, V. G. Zakrzewski, J. Gao, N. Rega, 
 G. Zheng, W. Liang, M. Hada, M. Ehara, K. Toyota, R. Fukuda, 
 J. Hasegawa, M. Ishida, T. Nakajima, Y. Honda, O. Kitao, H. Nakai, 
 T. Vreven, K. Throssell, J. A. Montgomery, Jr., J. E. Peralta, 
 F. Ogliaro, M. J. Bearpark, J. J. Heyd, E. N. Brothers, K. N. Kudin, 
 V. N. Staroverov, T. A. Keith, R. Kobayashi, J. Normand, 
 K. Raghavachari, A. P. Rendell, J. C. Burant, S. S. Iyengar, 
 J. Tomasi, M. Cossi, J. M. Millam, M. Klene, C. Adamo, R. Cammi, 
 J. W. Ochterski, R. L. Martin, K. Morokuma, O. Farkas, 
 J. B. Foresman, and D. J. Fox, Gaussian, Inc., Wallingford CT, 2016.
 
 ******************************************
 Gaussian 16:  ES64L-G16RevB.01 20-Dec-2017
                 4-Aug-2020 
 ******************************************
 %chk=scr.chk
 %nproc=24
 Will use up to   24 processors via shared memory.
 %mem=48GB
 ----------------------------------------------------------------------
 #p uwb97xd guess=mix def2tzvp # scrf=(iefpcm,solvent=Cyclohexane,read)
  nosym guess=only pop=none
 ----------------------------------------------------------------------
 1/38=1,40=2,172=1/1;
 2/12=2,15=1,17=6,18=5,40=1/2;
 3/5=44,7=101,11=2,25=1,30=1,70=2203,72=17,74=-58,89=1,116=2/1,2;
 4/13=-1/1;
 99/5=2/99;
 Leave Link    1 at Tue Aug  4 21:40:32 2020, MaxMem=  6442450944 cpu:               1.4 elap:               0.1
 (Enter /scratch/scicomp/CentOS/7.3.1611/Haswell/software/Gaussian/g16/l101.exe)
 -------------------------------------------------
 endo-2 xp-pcm with Vmol=108.160262177098 cm^3/mol
 -------------------------------------------------
 Symbolic Z-matrix:
 Charge =  0 Multiplicity = 1
 6                    -3.12259  -0.43839   0.24911 
 6                    -0.6218   -0.22272  -1.06094 
 1                    -4.08532  -0.54721   0.73502 
 1                     0.34928  -0.12863  -1.52714 
 6                     1.1043    1.41273   0.71153 
 6                     0.6218    0.22272   1.06094 
 1                     0.51626   2.31205   0.8443 
 1                    -0.34928   0.12863   1.52714 
 6                     1.4894   -1.001     1.01977 
 1                     1.9618   -1.06585   2.00807 
 1                     0.88901  -1.90293   0.91447 
 6                     2.42836   1.51914   0.10794 
 1                     2.83616   2.5068   -0.07181 
 6                     3.12259   0.43839  -0.24911 
 1                     4.08532   0.54721  -0.73502 
 6                     2.58944  -0.95353  -0.0453 
 1                     2.22687  -1.33938  -1.00611 
 1                     3.40096  -1.62307   0.24731 
 6                    -1.1043   -1.41273  -0.71153 
 1                    -0.51626  -2.31205  -0.8443 
 6                    -2.42836  -1.51914  -0.10794 
 1                    -2.83616  -2.5068    0.07181 
 6                    -1.4894    1.001    -1.01977 
 1                    -0.88901   1.90293  -0.91447 
 1                    -1.9618    1.06585  -2.00807 
 6                    -2.58944   0.95353   0.0453 
 1                    -3.40096   1.62307  -0.24731 
 1                    -2.22687   1.33938   1.00611 
 
 ITRead=  0  0  0  0  0  0  0  0  0  0  0  0  0  0  0  0  0  0  0  0
 ITRead=  0  0  0  0  0  0  0  0
 MicOpt= -1 -1 -1 -1 -1 -1 -1 -1 -1 -1 -1 -1 -1 -1 -1 -1 -1 -1 -1 -1
 MicOpt= -1 -1 -1 -1 -1 -1 -1 -1
 NAtoms=     28 NQM=       28 NQMF=       0 NMMI=      0 NMMIF=      0
                NMic=       0 NMicF=      0.
                    Isotopes and Nuclear Properties:
 (Nuclear quadrupole moments (NQMom) in fm**2, nuclear magnetic moments (NMagM)
  in nuclear magnetons)

  Atom         1           2           3           4           5           6           7           8           9          10
 IAtWgt=          12          12           1           1          12          12           1           1          12           1
 AtmWgt=  12.0000000  12.0000000   1.0078250   1.0078250  12.0000000  12.0000000   1.0078250   1.0078250  12.0000000   1.0078250
 NucSpn=           0           0           1           1           0           0           1           1           0           1
 AtZEff=  -0.0000000  -0.0000000  -0.0000000  -0.0000000  -0.0000000  -0.0000000  -0.0000000  -0.0000000  -0.0000000  -0.0000000
 NQMom=    0.0000000   0.0000000   0.0000000   0.0000000   0.0000000   0.0000000   0.0000000   0.0000000   0.0000000   0.0000000
 NMagM=    0.0000000   0.0000000   2.7928460   2.7928460   0.0000000   0.0000000   2.7928460   2.7928460   0.0000000   2.7928460
 AtZNuc=   6.0000000   6.0000000   1.0000000   1.0000000   6.0000000   6.0000000   1.0000000   1.0000000   6.0000000   1.0000000

  Atom        11          12          13          14          15          16          17          18          19          20
 IAtWgt=           1          12           1          12           1          12           1           1          12           1
 AtmWgt=   1.0078250  12.0000000   1.0078250  12.0000000   1.0078250  12.0000000   1.0078250   1.0078250  12.0000000   1.0078250
 NucSpn=           1           0           1           0           1           0           1           1           0           1
 AtZEff=  -0.0000000  -0.0000000  -0.0000000  -0.0000000  -0.0000000  -0.0000000  -0.0000000  -0.0000000  -0.0000000  -0.0000000
 NQMom=    0.0000000   0.0000000   0.0000000   0.0000000   0.0000000   0.0000000   0.0000000   0.0000000   0.0000000   0.0000000
 NMagM=    2.7928460   0.0000000   2.7928460   0.0000000   2.7928460   0.0000000   2.7928460   2.7928460   0.0000000   2.7928460
 AtZNuc=   1.0000000   6.0000000   1.0000000   6.0000000   1.0000000   6.0000000   1.0000000   1.0000000   6.0000000   1.0000000

  Atom        21          22          23          24          25          26          27          28
 IAtWgt=          12           1          12           1           1          12           1           1
 AtmWgt=  12.0000000   1.0078250  12.0000000   1.0078250   1.0078250  12.0000000   1.0078250   1.0078250
 NucSpn=           0           1           0           1           1           0           1           1
 AtZEff=  -0.0000000  -0.0000000  -0.0000000  -0.0000000  -0.0000000  -0.0000000  -0.0000000  -0.0000000
 NQMom=    0.0000000   0.0000000   0.0000000   0.0000000   0.0000000   0.0000000   0.0000000   0.0000000
 NMagM=    0.0000000   2.7928460   0.0000000   2.7928460   2.7928460   0.0000000   2.7928460   2.7928460
 AtZNuc=   6.0000000   1.0000000   6.0000000   1.0000000   1.0000000   6.0000000   1.0000000   1.0000000
 Leave Link  101 at Tue Aug  4 21:40:32 2020, MaxMem=  6442450944 cpu:               2.4 elap:               0.1
 (Enter /scratch/scicomp/CentOS/7.3.1611/Haswell/software/Gaussian/g16/l202.exe)
                          Input orientation:                          
 ---------------------------------------------------------------------
 Center     Atomic      Atomic             Coordinates (Angstroms)
 Number     Number       Type             X           Y           Z
 ---------------------------------------------------------------------
      1          6           0       -3.122592   -0.438388    0.249109
      2          6           0       -0.621801   -0.222716   -1.060943
      3          1           0       -4.085324   -0.547212    0.735016
      4          1           0        0.349284   -0.128633   -1.527138
      5          6           0        1.104299    1.412726    0.711533
      6          6           0        0.621801    0.222716    1.060943
      7          1           0        0.516259    2.312051    0.844298
      8          1           0       -0.349284    0.128633    1.527138
      9          6           0        1.489396   -1.000996    1.019772
     10          1           0        1.961797   -1.065850    2.008075
     11          1           0        0.889010   -1.902931    0.914465
     12          6           0        2.428355    1.519137    0.107940
     13          1           0        2.836160    2.506797   -0.071809
     14          6           0        3.122592    0.438388   -0.249109
     15          1           0        4.085324    0.547212   -0.735016
     16          6           0        2.589439   -0.953530   -0.045302
     17          1           0        2.226867   -1.339383   -1.006111
     18          1           0        3.400958   -1.623074    0.247309
     19          6           0       -1.104299   -1.412726   -0.711533
     20          1           0       -0.516259   -2.312051   -0.844298
     21          6           0       -2.428355   -1.519137   -0.107940
     22          1           0       -2.836160   -2.506797    0.071809
     23          6           0       -1.489396    1.000996   -1.019772
     24          1           0       -0.889010    1.902931   -0.914465
     25          1           0       -1.961797    1.065850   -2.008075
     26          6           0       -2.589439    0.953530    0.045302
     27          1           0       -3.400958    1.623074   -0.247309
     28          1           0       -2.226867    1.339383    1.006111
 ---------------------------------------------------------------------
                    Distance matrix (angstroms):
                    1          2          3          4          5
     1  C    0.000000
     2  C    2.831379   0.000000
     3  H    1.083882   3.914940   0.000000
     4  H    3.912151   1.081293   4.995828   0.000000
     5  C    4.637571   2.965765   5.547440   2.820901   0.000000
     6  C    3.888009   2.499471   4.780799   2.626000   1.330795
     7  H    4.600044   3.369001   5.418662   3.407129   1.082683
     8  H    3.105818   2.626000   3.878430   3.143690   2.104046
     9  C    4.709658   3.064677   5.600403   2.923632   2.463608
    10  H    5.416519   4.099357   6.201398   3.997037   2.925690
    11  H    4.322098   3.001318   5.158893   3.066083   3.328830
    12  C    5.887686   3.701863   6.862291   3.116274   1.459031
    13  H    6.654610   4.515099   7.608211   3.904872   2.193162
    14  C    6.326079   3.888009   7.341251   3.105818   2.438375
    15  H    7.341251   4.780799   8.373664   3.878430   3.424636
    16  C    5.742765   3.446401   6.732492   2.809731   2.894410
    17  H    5.568131   3.060206   6.595666   2.294058   3.432865
    18  H    6.630248   4.455908   7.578902   3.833371   3.834870
    19  C    2.438375   1.330795   3.424636   2.104046   3.858264
    20  H    3.391036   2.103187   4.283353   2.445966   4.349803
    21  C    1.333217   2.419206   2.097799   3.415099   4.663368
    22  H    2.095661   3.376913   2.416656   4.284781   5.594562
    23  C    2.519765   1.500629   3.495007   2.216805   3.145504
    24  H    3.438687   2.147378   4.352058   2.456826   2.618674
    25  H    2.950433   2.086397   3.825687   2.645597   4.113093
    26  C    1.504402   2.545375   2.228363   3.504246   3.781326
    27  H    2.138585   3.434043   2.478601   4.332523   4.610961
    28  H    2.129752   3.047803   2.662066   3.899869   3.344970
                    6          7          8          9         10
     6  C    0.000000
     7  H    2.103187   0.000000
     8  H    1.081293   2.445966   0.000000
     9  C    1.500629   3.457465   2.216805   0.000000
    10  H    2.086397   3.854111   2.645597   1.097320   0.000000
    11  H    2.147378   4.232014   2.456826   1.088595   1.745726
    12  C    2.419206   2.197054   3.415099   2.839745   3.241967
    13  H    3.376913   2.501823   4.284781   3.912791   4.225427
    14  C    2.831379   3.391036   3.912151   2.519765   2.950433
    15  H    3.914940   4.283353   4.995828   3.495007   3.825687
    16  C    2.545375   3.969066   3.504246   1.531904   2.150095
    17  H    3.047803   4.436571   3.899869   2.182332   3.038157
    18  H    3.434043   4.915597   4.332523   2.153543   2.341363
    19  C    2.965765   4.349803   2.820901   3.145504   4.113093
    20  H    3.369001   5.029888   3.407129   3.035832   3.978669
    21  C    3.701863   4.924988   3.116274   4.109620   4.894530
    22  H    4.515099   5.920874   3.904872   4.677233   5.370833
    23  C    3.064677   3.035832   2.923632   4.128064   5.034922
    24  H    3.001318   2.288101   3.066083   4.222663   5.047970
    25  H    4.099357   3.978669   3.997037   5.034922   6.005680
    26  C    3.446401   3.482719   2.809731   4.626733   5.352020
    27  H    4.455908   4.124425   3.833371   5.692697   6.409073
    28  H    3.060206   2.914963   2.294058   4.391830   4.932949
                   11         12         13         14         15
    11  H    0.000000
    12  C    3.838048   0.000000
    13  H    4.920349   1.083553   0.000000
    14  C    3.438687   1.333217   2.095661   0.000000
    15  H    4.352058   2.097799   2.416656   1.083882   0.000000
    16  C    2.171169   2.482642   3.469213   1.504402   2.228363
    17  H    2.407501   3.074548   4.004655   2.129752   2.662066
    18  H    2.614058   3.292244   4.180510   2.138585   2.478601
    19  C    2.618674   4.663368   5.594562   4.637571   5.547440
    20  H    2.288101   4.924988   5.920874   4.600044   5.418662
    21  C    3.492495   5.732830   6.627561   5.887686   6.862291
    22  H    3.866732   6.627561   7.571787   6.654610   7.608211
    23  C    4.222663   4.109620   4.677233   4.709658   5.600403
    24  H    4.581585   3.492495   3.866732   4.322098   5.158893
    25  H    5.047970   4.894530   5.370833   5.416519   6.201398
    26  C    4.584149   5.049960   5.644774   5.742765   6.732492
    27  H    5.673293   5.841053   6.301857   6.630248   7.578902
    28  H    4.497743   4.744483   5.306506   5.568131   6.595666
                   16         17         18         19         20
    16  C    0.000000
    17  H    1.097039   0.000000
    18  H    1.092004   1.740699   0.000000
    19  C    3.781326   3.344970   4.610961   0.000000
    20  H    3.482719   2.914963   4.124425   1.082683   0.000000
    21  C    5.049960   4.744483   5.841053   1.459031   2.197054
    22  H    5.644774   5.306506   6.301857   2.193162   2.501823
    23  C    4.626733   4.391830   5.692697   2.463608   3.457465
    24  H    4.584149   4.497743   5.673293   3.328830   4.232014
    25  H    5.352020   4.932949   6.409073   2.925690   3.854111
    26  C    5.519589   5.436885   6.524151   2.894410   3.969066
    27  H    6.524151   6.405025   7.553025   3.834870   4.915597
    28  H    5.436885   5.573201   6.405025   3.432865   4.436571
                   21         22         23         24         25
    21  C    0.000000
    22  H    1.083553   0.000000
    23  C    2.839745   3.912791   0.000000
    24  H    3.838048   4.920349   1.088595   0.000000
    25  H    3.241967   4.225427   1.097320   1.745726   0.000000
    26  C    2.482642   3.469213   1.531904   2.171169   2.150095
    27  H    3.292244   4.180510   2.153543   2.614058   2.341363
    28  H    3.074548   4.004655   2.182332   2.407501   3.038157
                   26         27         28
    26  C    0.000000
    27  H    1.092004   0.000000
    28  H    1.097039   1.740699   0.000000
 Symmetry turned off by external request.
 Stoichiometry    C12H16
 Framework group  CI[X(C12H16)]
 Deg. of freedom    39
 Full point group                 CI      NOp   2
 Rotational constants (GHZ):           1.8700670           0.6206596           0.5469464
 Leave Link  202 at Tue Aug  4 21:40:32 2020, MaxMem=  6442450944 cpu:               0.3 elap:               0.0
 (Enter /scratch/scicomp/CentOS/7.3.1611/Haswell/software/Gaussian/g16/l301.exe)
 Standard basis: def2TZVP (5D, 7F)
 Ernie: Thresh=  0.10000D-02 Tol=  0.10000D-05 Strict=F.
   468 basis functions,   740 primitive gaussians,   528 cartesian basis functions
    44 alpha electrons       44 beta electrons
       nuclear repulsion energy       685.9079802724 Hartrees.
 IExCor= 4639 DFT=T Ex+Corr=wB97XD ExCW=0 ScaHFX=  1.000000
 ScaDFX=  1.000000  1.000000  1.000000  1.000000 ScalE2=  1.000000  1.000000
 IRadAn=      5 IRanWt=     -1 IRanGd=            0 ICorTp=0 IEmpDi=121
 HFx  wShort=  0.000000 wLong=  0.200000 cFull=  0.222036 cShort=  0.000000 cLong=  0.777964
 DFx  wShort=  0.000000 wLong=  0.200000 cFull=  0.000000 cShort=  0.000000 cLong=  1.000000
 NAtoms=   28 NActive=   28 NUniq=   28 SFac= 1.00D+00 NAtFMM=   60 NAOKFM=F Big=F
 Integral buffers will be    131072 words long.
 Raffenetti 2 integral format.
 Two-electron integral symmetry is turned off.
 R6Disp:  Grimme-D2 Dispersion energy=       -0.0229309712 Hartrees.
 Nuclear repulsion after empirical dispersion term =      685.8850493012 Hartrees.
 Using the following non-standard input for PCM:
 norep  pcmdoc geomview  nodis cav g03defaults noaddsph  tsare=0.075
 Warning! Using old PCM defaults because the g03defaults keyword was found.
 These settings can be overridden by following keywords.
 nsfe=28
 Vmol=108.160262177098 Rsolv=2.815
 --- end of non-standard input.
 Reading user-defined spheres from input:
 ISph  on   Nord    Re0     Alpha      Xe            Ye            Ze
 --- end of user-defined spheres data.
 ------------------------------------------------------------------------------
 Polarizable Continuum Model (PCM)
 =================================
 Model                : PCM.
 Atomic radii         : UA0 (Simple United Atom Topological Model).
 Polarization charges : Total charges.
 Charge compensation  : None.
 Solution method      : On-the-fly selection.
 Cavity type          : VdW (van der Waals Surface) (Alpha=1.000).
 Cavity algorithm     : GePol (No added spheres)
                        User-defined sphere list used, NSphG=   28.
                        Tesserae with average area of 0.075 Ang**2.
                        Smoothing algorithm: None.
                        Polarization charges: point-like.
                        Self-potential: constant (ISelfS= 1).
                        Self-field    : global E.n sum rule (ISelfD= 3).
 Solvent              : CycloHexane, Eps=   2.016500 Eps(inf)=   2.035188
 ------------------------------------------------------------------------------
 GePol: Number of generator spheres                  =      28
 GePol: Total number of spheres                      =      28
 GePol: Number of exposed spheres                    =      28 (100.00%)
 GePol: Number of tesserae                           =    3817
 GePol: Average area of tesserae                     =       0.06 Ang**2
 GePol: Minimum area of tessera                      =   0.10D-02 Ang**2
 GePol: Maximum area of tessera                      =    0.12395 Ang**2
 GePol: Number of small tesserae                     =       0
 GePol: Fraction of small tesserae (<1% of avg)      =       0.00%
 GePol: Total count of vertices                      =   12644
 GePol: Maximum number of vertices in a tessera      =       6
 GePol: Cavity surface area                          =    231.126 Ang**2
 GePol: Cavity volume                                =    238.500 Ang**3
 PCM non-electrostatic energy =         0.0356938627 Hartrees.
 Nuclear repulsion after PCM non-electrostatic terms =      685.9207431639 Hartrees.
 Leave Link  301 at Tue Aug  4 21:40:32 2020, MaxMem=  6442450944 cpu:               3.2 elap:               0.2
 (Enter /scratch/scicomp/CentOS/7.3.1611/Haswell/software/Gaussian/g16/l302.exe)
 NPDir=0 NMtPBC=     1 NCelOv=     1 NCel=       1 NClECP=     1 NCelD=      1
         NCelK=      1 NCelE2=     1 NClLst=     1 CellRange=     0.0.
 One-electron integrals computed using PRISM.
   1 Symmetry operations used in ECPInt.
 ECPInt:  NShTT=   19306 NPrTT=   56928 LenC2=   18508 LenP2D=   42134.
 LDataN:  DoStor=T MaxTD1= 6 Len=  172
 NBasis=   468 RedAO= T EigKep=  2.32D-05  NBF=   468
 NBsUse=   468 1.00D-06 EigRej= -1.00D+00 NBFU=   468
 Precomputing XC quadrature grid using
 IXCGrd= 4 IRadAn=           5 IRanWt=          -1 IRanGd=           0 AccXCQ= 0.00D+00.
 Generated NRdTot=       0 NPtTot=           0 NUsed=           0 NTot=          32
 NSgBfM=   526   526   526   526   526 MxSgAt=    28 MxSgA2=    28.
 Leave Link  302 at Tue Aug  4 21:40:33 2020, MaxMem=  6442450944 cpu:              11.8 elap:               0.5
 (Enter /scratch/scicomp/CentOS/7.3.1611/Haswell/software/Gaussian/g16/l401.exe)
 ExpMin= 9.52D-02 ExpMax= 1.36D+04 ExpMxC= 4.63D+02 IAcc=3 IRadAn=         5 AccDes= 0.00D+00
 Harris functional with IExCor= 4639 and IRadAn=       5 diagonalized for initial guess.
 HarFok:  IExCor= 4639 AccDes= 0.00D+00 IRadAn=         5 IDoV= 1 UseB2=F ITyADJ=14
 ICtDFT=  3500011 ScaDFX=  1.000000  1.000000  1.000000  1.000000
 FoFCou: FMM=F IPFlag=           0 FMFlag=      100000 FMFlg1=           0
         NFxFlg=           0 DoJE=T BraDBF=F KetDBF=T FulRan=T
         wScrn=  0.000000 ICntrl=       500 IOpCl=  0 I1Cent=   200000004 NGrid=           0
         NMat0=    1 NMatS0=      1 NMatT0=    0 NMatD0=    1 NMtDS0=    0 NMtDT0=    0
 Symmetry not used in FoFCou.
 Harris En= -444.582812946390    
 JPrj=0 DoOrth=F DoCkMO=T.
 Mixing orbitals, IMix= 1 IMixAn=  0 NRI=1 NE=   44 Coef=  7.07106781D-01  7.07106781D-01
 Mixing orbitals, IMix= 1 IMixAn=  0 NRI=1 NE=   44 Coef= -7.07106781D-01  7.07106781D-01
 Initial guess <Sx>= 0.0000 <Sy>= 0.0000 <Sz>= 0.0000 <S**2>= 1.0000 S= 0.6180
 Leave Link  401 at Tue Aug  4 21:40:35 2020, MaxMem=  6442450944 cpu:              47.9 elap:               2.1
 (Enter /scratch/scicomp/CentOS/7.3.1611/Haswell/software/Gaussian/g16/l9999.exe)

 This type of calculation cannot be archived.


 THE 2ND LAW OF THERMODYNAMICS HAS THE SAME
 DEGREE OF TRUTH AS THE STATEMENT THAT IF YOU THROW
 A TUMBLERFULL OF WATER INTO THE SEA, YOU CANNOT GET
 THE SAME TUMBLERFULL OF WATER OUT AGAIN.
          - J.C. MAXWELL, LETTER TO LORD RAYLEIGH, DECEMBER 6,1870
 Job cpu time:       0 days  0 hours  1 minutes  7.9 seconds.
 Elapsed time:       0 days  0 hours  0 minutes  3.1 seconds.
 File lengths (MBytes):  RWF=    276 Int=      0 D2E=      0 Chk=      1 Scr=      1
 Normal termination of Gaussian 16 at Tue Aug  4 21:40:35 2020.
 Initial command:
 /scratch/scicomp/CentOS/7.3.1611/Haswell/software/Gaussian/g16/l1.exe "/scratch/bochen/cyclohexadiene-dimerization/wb97xd-def2tzvp/xp-pcm/meso/Gau-81736.inp" -scrdir="/scratch/bochen/cyclohexadiene-dimerization/wb97xd-def2tzvp/xp-pcm/meso/"
 Entering Link 1 = /scratch/scicomp/CentOS/7.3.1611/Haswell/software/Gaussian/g16/l1.exe PID=     81899.
  
 Copyright (c) 1988-2017, Gaussian, Inc.  All Rights Reserved.
  
 This is part of the Gaussian(R) 16 program.  It is based on
 the Gaussian(R) 09 system (copyright 2009, Gaussian, Inc.),
 the Gaussian(R) 03 system (copyright 2003, Gaussian, Inc.),
 the Gaussian(R) 98 system (copyright 1998, Gaussian, Inc.),
 the Gaussian(R) 94 system (copyright 1995, Gaussian, Inc.),
 the Gaussian 92(TM) system (copyright 1992, Gaussian, Inc.),
 the Gaussian 90(TM) system (copyright 1990, Gaussian, Inc.),
 the Gaussian 88(TM) system (copyright 1988, Gaussian, Inc.),
 the Gaussian 86(TM) system (copyright 1986, Carnegie Mellon
 University), and the Gaussian 82(TM) system (copyright 1983,
 Carnegie Mellon University). Gaussian is a federally registered
 trademark of Gaussian, Inc.
  
 This software contains proprietary and confidential information,
 including trade secrets, belonging to Gaussian, Inc.
  
 This software is provided under written license and may be
 used, copied, transmitted, or stored only in accord with that
 written license.
  
 The following legend is applicable only to US Government
 contracts under FAR:
  
                    RESTRICTED RIGHTS LEGEND
  
 Use, reproduction and disclosure by the US Government is
 subject to restrictions as set forth in subparagraphs (a)
 and (c) of the Commercial Computer Software - Restricted
 Rights clause in FAR 52.227-19.
  
 Gaussian, Inc.
 340 Quinnipiac St., Bldg. 40, Wallingford CT 06492
  
  
 ---------------------------------------------------------------
 Warning -- This program may not be used in any manner that
 competes with the business of Gaussian, Inc. or will provide
 assistance to any competitor of Gaussian, Inc.  The licensee
 of this program is prohibited from giving any competitor of
 Gaussian, Inc. access to this program.  By using this program,
 the user acknowledges that Gaussian, Inc. is engaged in the
 business of creating and licensing software in the field of
 computational chemistry and represents and warrants to the
 licensee that it is not a competitor of Gaussian, Inc. and that
 it will not use this program in any manner prohibited above.
 ---------------------------------------------------------------
  

 Cite this work as:
 Gaussian 16, Revision B.01,
 M. J. Frisch, G. W. Trucks, H. B. Schlegel, G. E. Scuseria, 
 M. A. Robb, J. R. Cheeseman, G. Scalmani, V. Barone, 
 G. A. Petersson, H. Nakatsuji, X. Li, M. Caricato, A. V. Marenich, 
 J. Bloino, B. G. Janesko, R. Gomperts, B. Mennucci, H. P. Hratchian, 
 J. V. Ortiz, A. F. Izmaylov, J. L. Sonnenberg, D. Williams-Young, 
 F. Ding, F. Lipparini, F. Egidi, J. Goings, B. Peng, A. Petrone, 
 T. Henderson, D. Ranasinghe, V. G. Zakrzewski, J. Gao, N. Rega, 
 G. Zheng, W. Liang, M. Hada, M. Ehara, K. Toyota, R. Fukuda, 
 J. Hasegawa, M. Ishida, T. Nakajima, Y. Honda, O. Kitao, H. Nakai, 
 T. Vreven, K. Throssell, J. A. Montgomery, Jr., J. E. Peralta, 
 F. Ogliaro, M. J. Bearpark, J. J. Heyd, E. N. Brothers, K. N. Kudin, 
 V. N. Staroverov, T. A. Keith, R. Kobayashi, J. Normand, 
 K. Raghavachari, A. P. Rendell, J. C. Burant, S. S. Iyengar, 
 J. Tomasi, M. Cossi, J. M. Millam, M. Klene, C. Adamo, R. Cammi, 
 J. W. Ochterski, R. L. Martin, K. Morokuma, O. Farkas, 
 J. B. Foresman, and D. J. Fox, Gaussian, Inc., Wallingford CT, 2016.
 
 ******************************************
 Gaussian 16:  ES64L-G16RevB.01 20-Dec-2017
                 4-Aug-2020 
 ******************************************
 %chk=scr.chk
 %nproc=24
 Will use up to   24 processors via shared memory.
 %mem=48GB
 ----------------------------------------------------------------------
 #p uwb97xd guess=mix def2tzvp # scrf=(iefpcm,solvent=Cyclohexane,read)
  nosym guess=only pop=none
 ----------------------------------------------------------------------
 1/38=1,40=2,172=1/1;
 2/12=2,15=1,17=6,18=5,40=1/2;
 3/5=44,7=101,11=2,25=1,30=1,70=2203,72=17,74=-58,89=1,116=2/1,2;
 4/13=-1/1;
 99/5=2/99;
 Leave Link    1 at Tue Aug  4 21:40:35 2020, MaxMem=  6442450944 cpu:               1.5 elap:               0.1
 (Enter /scratch/scicomp/CentOS/7.3.1611/Haswell/software/Gaussian/g16/l101.exe)
 -------------------------------------------------
 endo-2 xp-pcm with Vmol=101.730197792279 cm^3/mol
 -------------------------------------------------
 Symbolic Z-matrix:
 Charge =  0 Multiplicity = 1
 6                    -3.12259  -0.43839   0.24911 
 6                    -0.6218   -0.22272  -1.06094 
 1                    -4.08532  -0.54721   0.73502 
 1                     0.34928  -0.12863  -1.52714 
 6                     1.1043    1.41273   0.71153 
 6                     0.6218    0.22272   1.06094 
 1                     0.51626   2.31205   0.8443 
 1                    -0.34928   0.12863   1.52714 
 6                     1.4894   -1.001     1.01977 
 1                     1.9618   -1.06585   2.00807 
 1                     0.88901  -1.90293   0.91447 
 6                     2.42836   1.51914   0.10794 
 1                     2.83616   2.5068   -0.07181 
 6                     3.12259   0.43839  -0.24911 
 1                     4.08532   0.54721  -0.73502 
 6                     2.58944  -0.95353  -0.0453 
 1                     2.22687  -1.33938  -1.00611 
 1                     3.40096  -1.62307   0.24731 
 6                    -1.1043   -1.41273  -0.71153 
 1                    -0.51626  -2.31205  -0.8443 
 6                    -2.42836  -1.51914  -0.10794 
 1                    -2.83616  -2.5068    0.07181 
 6                    -1.4894    1.001    -1.01977 
 1                    -0.88901   1.90293  -0.91447 
 1                    -1.9618    1.06585  -2.00807 
 6                    -2.58944   0.95353   0.0453 
 1                    -3.40096   1.62307  -0.24731 
 1                    -2.22687   1.33938   1.00611 
 
 ITRead=  0  0  0  0  0  0  0  0  0  0  0  0  0  0  0  0  0  0  0  0
 ITRead=  0  0  0  0  0  0  0  0
 MicOpt= -1 -1 -1 -1 -1 -1 -1 -1 -1 -1 -1 -1 -1 -1 -1 -1 -1 -1 -1 -1
 MicOpt= -1 -1 -1 -1 -1 -1 -1 -1
 NAtoms=     28 NQM=       28 NQMF=       0 NMMI=      0 NMMIF=      0
                NMic=       0 NMicF=      0.
                    Isotopes and Nuclear Properties:
 (Nuclear quadrupole moments (NQMom) in fm**2, nuclear magnetic moments (NMagM)
  in nuclear magnetons)

  Atom         1           2           3           4           5           6           7           8           9          10
 IAtWgt=          12          12           1           1          12          12           1           1          12           1
 AtmWgt=  12.0000000  12.0000000   1.0078250   1.0078250  12.0000000  12.0000000   1.0078250   1.0078250  12.0000000   1.0078250
 NucSpn=           0           0           1           1           0           0           1           1           0           1
 AtZEff=  -0.0000000  -0.0000000  -0.0000000  -0.0000000  -0.0000000  -0.0000000  -0.0000000  -0.0000000  -0.0000000  -0.0000000
 NQMom=    0.0000000   0.0000000   0.0000000   0.0000000   0.0000000   0.0000000   0.0000000   0.0000000   0.0000000   0.0000000
 NMagM=    0.0000000   0.0000000   2.7928460   2.7928460   0.0000000   0.0000000   2.7928460   2.7928460   0.0000000   2.7928460
 AtZNuc=   6.0000000   6.0000000   1.0000000   1.0000000   6.0000000   6.0000000   1.0000000   1.0000000   6.0000000   1.0000000

  Atom        11          12          13          14          15          16          17          18          19          20
 IAtWgt=           1          12           1          12           1          12           1           1          12           1
 AtmWgt=   1.0078250  12.0000000   1.0078250  12.0000000   1.0078250  12.0000000   1.0078250   1.0078250  12.0000000   1.0078250
 NucSpn=           1           0           1           0           1           0           1           1           0           1
 AtZEff=  -0.0000000  -0.0000000  -0.0000000  -0.0000000  -0.0000000  -0.0000000  -0.0000000  -0.0000000  -0.0000000  -0.0000000
 NQMom=    0.0000000   0.0000000   0.0000000   0.0000000   0.0000000   0.0000000   0.0000000   0.0000000   0.0000000   0.0000000
 NMagM=    2.7928460   0.0000000   2.7928460   0.0000000   2.7928460   0.0000000   2.7928460   2.7928460   0.0000000   2.7928460
 AtZNuc=   1.0000000   6.0000000   1.0000000   6.0000000   1.0000000   6.0000000   1.0000000   1.0000000   6.0000000   1.0000000

  Atom        21          22          23          24          25          26          27          28
 IAtWgt=          12           1          12           1           1          12           1           1
 AtmWgt=  12.0000000   1.0078250  12.0000000   1.0078250   1.0078250  12.0000000   1.0078250   1.0078250
 NucSpn=           0           1           0           1           1           0           1           1
 AtZEff=  -0.0000000  -0.0000000  -0.0000000  -0.0000000  -0.0000000  -0.0000000  -0.0000000  -0.0000000
 NQMom=    0.0000000   0.0000000   0.0000000   0.0000000   0.0000000   0.0000000   0.0000000   0.0000000
 NMagM=    0.0000000   2.7928460   0.0000000   2.7928460   2.7928460   0.0000000   2.7928460   2.7928460
 AtZNuc=   6.0000000   1.0000000   6.0000000   1.0000000   1.0000000   6.0000000   1.0000000   1.0000000
 Leave Link  101 at Tue Aug  4 21:40:35 2020, MaxMem=  6442450944 cpu:               2.4 elap:               0.1
 (Enter /scratch/scicomp/CentOS/7.3.1611/Haswell/software/Gaussian/g16/l202.exe)
                          Input orientation:                          
 ---------------------------------------------------------------------
 Center     Atomic      Atomic             Coordinates (Angstroms)
 Number     Number       Type             X           Y           Z
 ---------------------------------------------------------------------
      1          6           0       -3.122592   -0.438388    0.249109
      2          6           0       -0.621801   -0.222716   -1.060943
      3          1           0       -4.085324   -0.547212    0.735016
      4          1           0        0.349284   -0.128633   -1.527138
      5          6           0        1.104299    1.412726    0.711533
      6          6           0        0.621801    0.222716    1.060943
      7          1           0        0.516259    2.312051    0.844298
      8          1           0       -0.349284    0.128633    1.527138
      9          6           0        1.489396   -1.000996    1.019772
     10          1           0        1.961797   -1.065850    2.008075
     11          1           0        0.889010   -1.902931    0.914465
     12          6           0        2.428355    1.519137    0.107940
     13          1           0        2.836160    2.506797   -0.071809
     14          6           0        3.122592    0.438388   -0.249109
     15          1           0        4.085324    0.547212   -0.735016
     16          6           0        2.589439   -0.953530   -0.045302
     17          1           0        2.226867   -1.339383   -1.006111
     18          1           0        3.400958   -1.623074    0.247309
     19          6           0       -1.104299   -1.412726   -0.711533
     20          1           0       -0.516259   -2.312051   -0.844298
     21          6           0       -2.428355   -1.519137   -0.107940
     22          1           0       -2.836160   -2.506797    0.071809
     23          6           0       -1.489396    1.000996   -1.019772
     24          1           0       -0.889010    1.902931   -0.914465
     25          1           0       -1.961797    1.065850   -2.008075
     26          6           0       -2.589439    0.953530    0.045302
     27          1           0       -3.400958    1.623074   -0.247309
     28          1           0       -2.226867    1.339383    1.006111
 ---------------------------------------------------------------------
                    Distance matrix (angstroms):
                    1          2          3          4          5
     1  C    0.000000
     2  C    2.831379   0.000000
     3  H    1.083882   3.914940   0.000000
     4  H    3.912151   1.081293   4.995828   0.000000
     5  C    4.637571   2.965765   5.547440   2.820901   0.000000
     6  C    3.888009   2.499471   4.780799   2.626000   1.330795
     7  H    4.600044   3.369001   5.418662   3.407129   1.082683
     8  H    3.105818   2.626000   3.878430   3.143690   2.104046
     9  C    4.709658   3.064677   5.600403   2.923632   2.463608
    10  H    5.416519   4.099357   6.201398   3.997037   2.925690
    11  H    4.322098   3.001318   5.158893   3.066083   3.328830
    12  C    5.887686   3.701863   6.862291   3.116274   1.459031
    13  H    6.654610   4.515099   7.608211   3.904872   2.193162
    14  C    6.326079   3.888009   7.341251   3.105818   2.438375
    15  H    7.341251   4.780799   8.373664   3.878430   3.424636
    16  C    5.742765   3.446401   6.732492   2.809731   2.894410
    17  H    5.568131   3.060206   6.595666   2.294058   3.432865
    18  H    6.630248   4.455908   7.578902   3.833371   3.834870
    19  C    2.438375   1.330795   3.424636   2.104046   3.858264
    20  H    3.391036   2.103187   4.283353   2.445966   4.349803
    21  C    1.333217   2.419206   2.097799   3.415099   4.663368
    22  H    2.095661   3.376913   2.416656   4.284781   5.594562
    23  C    2.519765   1.500629   3.495007   2.216805   3.145504
    24  H    3.438687   2.147378   4.352058   2.456826   2.618674
    25  H    2.950433   2.086397   3.825687   2.645597   4.113093
    26  C    1.504402   2.545375   2.228363   3.504246   3.781326
    27  H    2.138585   3.434043   2.478601   4.332523   4.610961
    28  H    2.129752   3.047803   2.662066   3.899869   3.344970
                    6          7          8          9         10
     6  C    0.000000
     7  H    2.103187   0.000000
     8  H    1.081293   2.445966   0.000000
     9  C    1.500629   3.457465   2.216805   0.000000
    10  H    2.086397   3.854111   2.645597   1.097320   0.000000
    11  H    2.147378   4.232014   2.456826   1.088595   1.745726
    12  C    2.419206   2.197054   3.415099   2.839745   3.241967
    13  H    3.376913   2.501823   4.284781   3.912791   4.225427
    14  C    2.831379   3.391036   3.912151   2.519765   2.950433
    15  H    3.914940   4.283353   4.995828   3.495007   3.825687
    16  C    2.545375   3.969066   3.504246   1.531904   2.150095
    17  H    3.047803   4.436571   3.899869   2.182332   3.038157
    18  H    3.434043   4.915597   4.332523   2.153543   2.341363
    19  C    2.965765   4.349803   2.820901   3.145504   4.113093
    20  H    3.369001   5.029888   3.407129   3.035832   3.978669
    21  C    3.701863   4.924988   3.116274   4.109620   4.894530
    22  H    4.515099   5.920874   3.904872   4.677233   5.370833
    23  C    3.064677   3.035832   2.923632   4.128064   5.034922
    24  H    3.001318   2.288101   3.066083   4.222663   5.047970
    25  H    4.099357   3.978669   3.997037   5.034922   6.005680
    26  C    3.446401   3.482719   2.809731   4.626733   5.352020
    27  H    4.455908   4.124425   3.833371   5.692697   6.409073
    28  H    3.060206   2.914963   2.294058   4.391830   4.932949
                   11         12         13         14         15
    11  H    0.000000
    12  C    3.838048   0.000000
    13  H    4.920349   1.083553   0.000000
    14  C    3.438687   1.333217   2.095661   0.000000
    15  H    4.352058   2.097799   2.416656   1.083882   0.000000
    16  C    2.171169   2.482642   3.469213   1.504402   2.228363
    17  H    2.407501   3.074548   4.004655   2.129752   2.662066
    18  H    2.614058   3.292244   4.180510   2.138585   2.478601
    19  C    2.618674   4.663368   5.594562   4.637571   5.547440
    20  H    2.288101   4.924988   5.920874   4.600044   5.418662
    21  C    3.492495   5.732830   6.627561   5.887686   6.862291
    22  H    3.866732   6.627561   7.571787   6.654610   7.608211
    23  C    4.222663   4.109620   4.677233   4.709658   5.600403
    24  H    4.581585   3.492495   3.866732   4.322098   5.158893
    25  H    5.047970   4.894530   5.370833   5.416519   6.201398
    26  C    4.584149   5.049960   5.644774   5.742765   6.732492
    27  H    5.673293   5.841053   6.301857   6.630248   7.578902
    28  H    4.497743   4.744483   5.306506   5.568131   6.595666
                   16         17         18         19         20
    16  C    0.000000
    17  H    1.097039   0.000000
    18  H    1.092004   1.740699   0.000000
    19  C    3.781326   3.344970   4.610961   0.000000
    20  H    3.482719   2.914963   4.124425   1.082683   0.000000
    21  C    5.049960   4.744483   5.841053   1.459031   2.197054
    22  H    5.644774   5.306506   6.301857   2.193162   2.501823
    23  C    4.626733   4.391830   5.692697   2.463608   3.457465
    24  H    4.584149   4.497743   5.673293   3.328830   4.232014
    25  H    5.352020   4.932949   6.409073   2.925690   3.854111
    26  C    5.519589   5.436885   6.524151   2.894410   3.969066
    27  H    6.524151   6.405025   7.553025   3.834870   4.915597
    28  H    5.436885   5.573201   6.405025   3.432865   4.436571
                   21         22         23         24         25
    21  C    0.000000
    22  H    1.083553   0.000000
    23  C    2.839745   3.912791   0.000000
    24  H    3.838048   4.920349   1.088595   0.000000
    25  H    3.241967   4.225427   1.097320   1.745726   0.000000
    26  C    2.482642   3.469213   1.531904   2.171169   2.150095
    27  H    3.292244   4.180510   2.153543   2.614058   2.341363
    28  H    3.074548   4.004655   2.182332   2.407501   3.038157
                   26         27         28
    26  C    0.000000
    27  H    1.092004   0.000000
    28  H    1.097039   1.740699   0.000000
 Symmetry turned off by external request.
 Stoichiometry    C12H16
 Framework group  CI[X(C12H16)]
 Deg. of freedom    39
 Full point group                 CI      NOp   2
 Rotational constants (GHZ):           1.8700670           0.6206596           0.5469464
 Leave Link  202 at Tue Aug  4 21:40:35 2020, MaxMem=  6442450944 cpu:               0.3 elap:               0.0
 (Enter /scratch/scicomp/CentOS/7.3.1611/Haswell/software/Gaussian/g16/l301.exe)
 Standard basis: def2TZVP (5D, 7F)
 Ernie: Thresh=  0.10000D-02 Tol=  0.10000D-05 Strict=F.
   468 basis functions,   740 primitive gaussians,   528 cartesian basis functions
    44 alpha electrons       44 beta electrons
       nuclear repulsion energy       685.9079802724 Hartrees.
 IExCor= 4639 DFT=T Ex+Corr=wB97XD ExCW=0 ScaHFX=  1.000000
 ScaDFX=  1.000000  1.000000  1.000000  1.000000 ScalE2=  1.000000  1.000000
 IRadAn=      5 IRanWt=     -1 IRanGd=            0 ICorTp=0 IEmpDi=121
 HFx  wShort=  0.000000 wLong=  0.200000 cFull=  0.222036 cShort=  0.000000 cLong=  0.777964
 DFx  wShort=  0.000000 wLong=  0.200000 cFull=  0.000000 cShort=  0.000000 cLong=  1.000000
 NAtoms=   28 NActive=   28 NUniq=   28 SFac= 1.00D+00 NAtFMM=   60 NAOKFM=F Big=F
 Integral buffers will be    131072 words long.
 Raffenetti 2 integral format.
 Two-electron integral symmetry is turned off.
 R6Disp:  Grimme-D2 Dispersion energy=       -0.0229309712 Hartrees.
 Nuclear repulsion after empirical dispersion term =      685.8850493012 Hartrees.
 Using the following non-standard input for PCM:
 norep  pcmdoc geomview  nodis cav g03defaults noaddsph  tsare=0.075
 Warning! Using old PCM defaults because the g03defaults keyword was found.
 These settings can be overridden by following keywords.
 nsfe=28
 Vmol=101.730197792279 Rsolv=2.815
 --- end of non-standard input.
 Reading user-defined spheres from input:
 ISph  on   Nord    Re0     Alpha      Xe            Ye            Ze
 --- end of user-defined spheres data.
 ------------------------------------------------------------------------------
 Polarizable Continuum Model (PCM)
 =================================
 Model                : PCM.
 Atomic radii         : UA0 (Simple United Atom Topological Model).
 Polarization charges : Total charges.
 Charge compensation  : None.
 Solution method      : On-the-fly selection.
 Cavity type          : VdW (van der Waals Surface) (Alpha=1.000).
 Cavity algorithm     : GePol (No added spheres)
                        User-defined sphere list used, NSphG=   28.
                        Tesserae with average area of 0.075 Ang**2.
                        Smoothing algorithm: None.
                        Polarization charges: point-like.
                        Self-potential: constant (ISelfS= 1).
                        Self-field    : global E.n sum rule (ISelfD= 3).
 Solvent              : CycloHexane, Eps=   2.016500 Eps(inf)=   2.035188
 ------------------------------------------------------------------------------
 GePol: Number of generator spheres                  =      28
 GePol: Total number of spheres                      =      28
 GePol: Number of exposed spheres                    =      28 (100.00%)
 GePol: Number of tesserae                           =    3817
 GePol: Average area of tesserae                     =       0.06 Ang**2
 GePol: Minimum area of tessera                      =   0.10D-02 Ang**2
 GePol: Maximum area of tessera                      =    0.12395 Ang**2
 GePol: Number of small tesserae                     =       0
 GePol: Fraction of small tesserae (<1% of avg)      =       0.00%
 GePol: Total count of vertices                      =   12644
 GePol: Maximum number of vertices in a tessera      =       6
 GePol: Cavity surface area                          =    231.126 Ang**2
 GePol: Cavity volume                                =    238.500 Ang**3
 PCM non-electrostatic energy =         0.0424007842 Hartrees.
 Nuclear repulsion after PCM non-electrostatic terms =      685.9274500854 Hartrees.
 Leave Link  301 at Tue Aug  4 21:40:35 2020, MaxMem=  6442450944 cpu:               3.2 elap:               0.2
 (Enter /scratch/scicomp/CentOS/7.3.1611/Haswell/software/Gaussian/g16/l302.exe)
 NPDir=0 NMtPBC=     1 NCelOv=     1 NCel=       1 NClECP=     1 NCelD=      1
         NCelK=      1 NCelE2=     1 NClLst=     1 CellRange=     0.0.
 One-electron integrals computed using PRISM.
   1 Symmetry operations used in ECPInt.
 ECPInt:  NShTT=   19306 NPrTT=   56928 LenC2=   18508 LenP2D=   42134.
 LDataN:  DoStor=T MaxTD1= 6 Len=  172
 NBasis=   468 RedAO= T EigKep=  2.32D-05  NBF=   468
 NBsUse=   468 1.00D-06 EigRej= -1.00D+00 NBFU=   468
 Precomputing XC quadrature grid using
 IXCGrd= 4 IRadAn=           5 IRanWt=          -1 IRanGd=           0 AccXCQ= 0.00D+00.
 Generated NRdTot=       0 NPtTot=           0 NUsed=           0 NTot=          32
 NSgBfM=   526   526   526   526   526 MxSgAt=    28 MxSgA2=    28.
 Leave Link  302 at Tue Aug  4 21:40:36 2020, MaxMem=  6442450944 cpu:              12.5 elap:               0.6
 (Enter /scratch/scicomp/CentOS/7.3.1611/Haswell/software/Gaussian/g16/l401.exe)
 ExpMin= 9.52D-02 ExpMax= 1.36D+04 ExpMxC= 4.63D+02 IAcc=3 IRadAn=         5 AccDes= 0.00D+00
 Harris functional with IExCor= 4639 and IRadAn=       5 diagonalized for initial guess.
 HarFok:  IExCor= 4639 AccDes= 0.00D+00 IRadAn=         5 IDoV= 1 UseB2=F ITyADJ=14
 ICtDFT=  3500011 ScaDFX=  1.000000  1.000000  1.000000  1.000000
 FoFCou: FMM=F IPFlag=           0 FMFlag=      100000 FMFlg1=           0
         NFxFlg=           0 DoJE=T BraDBF=F KetDBF=T FulRan=T
         wScrn=  0.000000 ICntrl=       500 IOpCl=  0 I1Cent=   200000004 NGrid=           0
         NMat0=    1 NMatS0=      1 NMatT0=    0 NMatD0=    1 NMtDS0=    0 NMtDT0=    0
 Symmetry not used in FoFCou.
 Harris En= -444.576106024951    
 JPrj=0 DoOrth=F DoCkMO=T.
 Mixing orbitals, IMix= 1 IMixAn=  0 NRI=1 NE=   44 Coef=  7.07106781D-01  7.07106781D-01
 Mixing orbitals, IMix= 1 IMixAn=  0 NRI=1 NE=   44 Coef= -7.07106781D-01  7.07106781D-01
 Initial guess <Sx>= 0.0000 <Sy>= 0.0000 <Sz>= 0.0000 <S**2>= 1.0000 S= 0.6180
 Leave Link  401 at Tue Aug  4 21:40:38 2020, MaxMem=  6442450944 cpu:              47.8 elap:               2.1
 (Enter /scratch/scicomp/CentOS/7.3.1611/Haswell/software/Gaussian/g16/l9999.exe)

 This type of calculation cannot be archived.


 IF THERE IS ONE WAY BETTER THAN ANOTHER IT IS THE WAY OF NATURE.

                          -- ARISTOTLE
 Job cpu time:       0 days  0 hours  1 minutes  8.6 seconds.
 Elapsed time:       0 days  0 hours  0 minutes  3.1 seconds.
 File lengths (MBytes):  RWF=    276 Int=      0 D2E=      0 Chk=      1 Scr=      1
 Normal termination of Gaussian 16 at Tue Aug  4 21:40:38 2020.
 Initial command:
 /scratch/scicomp/CentOS/7.3.1611/Haswell/software/Gaussian/g16/l1.exe "/scratch/bochen/cyclohexadiene-dimerization/wb97xd-def2tzvp/xp-pcm/meso/Gau-81736.inp" -scrdir="/scratch/bochen/cyclohexadiene-dimerization/wb97xd-def2tzvp/xp-pcm/meso/"
 Entering Link 1 = /scratch/scicomp/CentOS/7.3.1611/Haswell/software/Gaussian/g16/l1.exe PID=     82062.
  
 Copyright (c) 1988-2017, Gaussian, Inc.  All Rights Reserved.
  
 This is part of the Gaussian(R) 16 program.  It is based on
 the Gaussian(R) 09 system (copyright 2009, Gaussian, Inc.),
 the Gaussian(R) 03 system (copyright 2003, Gaussian, Inc.),
 the Gaussian(R) 98 system (copyright 1998, Gaussian, Inc.),
 the Gaussian(R) 94 system (copyright 1995, Gaussian, Inc.),
 the Gaussian 92(TM) system (copyright 1992, Gaussian, Inc.),
 the Gaussian 90(TM) system (copyright 1990, Gaussian, Inc.),
 the Gaussian 88(TM) system (copyright 1988, Gaussian, Inc.),
 the Gaussian 86(TM) system (copyright 1986, Carnegie Mellon
 University), and the Gaussian 82(TM) system (copyright 1983,
 Carnegie Mellon University). Gaussian is a federally registered
 trademark of Gaussian, Inc.
  
 This software contains proprietary and confidential information,
 including trade secrets, belonging to Gaussian, Inc.
  
 This software is provided under written license and may be
 used, copied, transmitted, or stored only in accord with that
 written license.
  
 The following legend is applicable only to US Government
 contracts under FAR:
  
                    RESTRICTED RIGHTS LEGEND
  
 Use, reproduction and disclosure by the US Government is
 subject to restrictions as set forth in subparagraphs (a)
 and (c) of the Commercial Computer Software - Restricted
 Rights clause in FAR 52.227-19.
  
 Gaussian, Inc.
 340 Quinnipiac St., Bldg. 40, Wallingford CT 06492
  
  
 ---------------------------------------------------------------
 Warning -- This program may not be used in any manner that
 competes with the business of Gaussian, Inc. or will provide
 assistance to any competitor of Gaussian, Inc.  The licensee
 of this program is prohibited from giving any competitor of
 Gaussian, Inc. access to this program.  By using this program,
 the user acknowledges that Gaussian, Inc. is engaged in the
 business of creating and licensing software in the field of
 computational chemistry and represents and warrants to the
 licensee that it is not a competitor of Gaussian, Inc. and that
 it will not use this program in any manner prohibited above.
 ---------------------------------------------------------------
  

 Cite this work as:
 Gaussian 16, Revision B.01,
 M. J. Frisch, G. W. Trucks, H. B. Schlegel, G. E. Scuseria, 
 M. A. Robb, J. R. Cheeseman, G. Scalmani, V. Barone, 
 G. A. Petersson, H. Nakatsuji, X. Li, M. Caricato, A. V. Marenich, 
 J. Bloino, B. G. Janesko, R. Gomperts, B. Mennucci, H. P. Hratchian, 
 J. V. Ortiz, A. F. Izmaylov, J. L. Sonnenberg, D. Williams-Young, 
 F. Ding, F. Lipparini, F. Egidi, J. Goings, B. Peng, A. Petrone, 
 T. Henderson, D. Ranasinghe, V. G. Zakrzewski, J. Gao, N. Rega, 
 G. Zheng, W. Liang, M. Hada, M. Ehara, K. Toyota, R. Fukuda, 
 J. Hasegawa, M. Ishida, T. Nakajima, Y. Honda, O. Kitao, H. Nakai, 
 T. Vreven, K. Throssell, J. A. Montgomery, Jr., J. E. Peralta, 
 F. Ogliaro, M. J. Bearpark, J. J. Heyd, E. N. Brothers, K. N. Kudin, 
 V. N. Staroverov, T. A. Keith, R. Kobayashi, J. Normand, 
 K. Raghavachari, A. P. Rendell, J. C. Burant, S. S. Iyengar, 
 J. Tomasi, M. Cossi, J. M. Millam, M. Klene, C. Adamo, R. Cammi, 
 J. W. Ochterski, R. L. Martin, K. Morokuma, O. Farkas, 
 J. B. Foresman, and D. J. Fox, Gaussian, Inc., Wallingford CT, 2016.
 
 ******************************************
 Gaussian 16:  ES64L-G16RevB.01 20-Dec-2017
                 4-Aug-2020 
 ******************************************
 %chk=scr.chk
 %nproc=24
 Will use up to   24 processors via shared memory.
 %mem=48GB
 ----------------------------------------------------------------------
 #p uwb97xd guess=mix def2tzvp # scrf=(iefpcm,solvent=Cyclohexane,read)
  nosym guess=only pop=none
 ----------------------------------------------------------------------
 1/38=1,40=2,172=1/1;
 2/12=2,15=1,17=6,18=5,40=1/2;
 3/5=44,7=101,11=2,25=1,30=1,70=2203,72=17,74=-58,89=1,116=2/1,2;
 4/13=-1/1;
 99/5=2/99;
 Leave Link    1 at Tue Aug  4 21:40:38 2020, MaxMem=  6442450944 cpu:               1.4 elap:               0.1
 (Enter /scratch/scicomp/CentOS/7.3.1611/Haswell/software/Gaussian/g16/l101.exe)
 -------------------------------------------------
 endo-2 xp-pcm with Vmol=95.7726100512575 cm^3/mol
 -------------------------------------------------
 Symbolic Z-matrix:
 Charge =  0 Multiplicity = 1
 6                    -3.12259  -0.43839   0.24911 
 6                    -0.6218   -0.22272  -1.06094 
 1                    -4.08532  -0.54721   0.73502 
 1                     0.34928  -0.12863  -1.52714 
 6                     1.1043    1.41273   0.71153 
 6                     0.6218    0.22272   1.06094 
 1                     0.51626   2.31205   0.8443 
 1                    -0.34928   0.12863   1.52714 
 6                     1.4894   -1.001     1.01977 
 1                     1.9618   -1.06585   2.00807 
 1                     0.88901  -1.90293   0.91447 
 6                     2.42836   1.51914   0.10794 
 1                     2.83616   2.5068   -0.07181 
 6                     3.12259   0.43839  -0.24911 
 1                     4.08532   0.54721  -0.73502 
 6                     2.58944  -0.95353  -0.0453 
 1                     2.22687  -1.33938  -1.00611 
 1                     3.40096  -1.62307   0.24731 
 6                    -1.1043   -1.41273  -0.71153 
 1                    -0.51626  -2.31205  -0.8443 
 6                    -2.42836  -1.51914  -0.10794 
 1                    -2.83616  -2.5068    0.07181 
 6                    -1.4894    1.001    -1.01977 
 1                    -0.88901   1.90293  -0.91447 
 1                    -1.9618    1.06585  -2.00807 
 6                    -2.58944   0.95353   0.0453 
 1                    -3.40096   1.62307  -0.24731 
 1                    -2.22687   1.33938   1.00611 
 
 ITRead=  0  0  0  0  0  0  0  0  0  0  0  0  0  0  0  0  0  0  0  0
 ITRead=  0  0  0  0  0  0  0  0
 MicOpt= -1 -1 -1 -1 -1 -1 -1 -1 -1 -1 -1 -1 -1 -1 -1 -1 -1 -1 -1 -1
 MicOpt= -1 -1 -1 -1 -1 -1 -1 -1
 NAtoms=     28 NQM=       28 NQMF=       0 NMMI=      0 NMMIF=      0
                NMic=       0 NMicF=      0.
                    Isotopes and Nuclear Properties:
 (Nuclear quadrupole moments (NQMom) in fm**2, nuclear magnetic moments (NMagM)
  in nuclear magnetons)

  Atom         1           2           3           4           5           6           7           8           9          10
 IAtWgt=          12          12           1           1          12          12           1           1          12           1
 AtmWgt=  12.0000000  12.0000000   1.0078250   1.0078250  12.0000000  12.0000000   1.0078250   1.0078250  12.0000000   1.0078250
 NucSpn=           0           0           1           1           0           0           1           1           0           1
 AtZEff=  -0.0000000  -0.0000000  -0.0000000  -0.0000000  -0.0000000  -0.0000000  -0.0000000  -0.0000000  -0.0000000  -0.0000000
 NQMom=    0.0000000   0.0000000   0.0000000   0.0000000   0.0000000   0.0000000   0.0000000   0.0000000   0.0000000   0.0000000
 NMagM=    0.0000000   0.0000000   2.7928460   2.7928460   0.0000000   0.0000000   2.7928460   2.7928460   0.0000000   2.7928460
 AtZNuc=   6.0000000   6.0000000   1.0000000   1.0000000   6.0000000   6.0000000   1.0000000   1.0000000   6.0000000   1.0000000

  Atom        11          12          13          14          15          16          17          18          19          20
 IAtWgt=           1          12           1          12           1          12           1           1          12           1
 AtmWgt=   1.0078250  12.0000000   1.0078250  12.0000000   1.0078250  12.0000000   1.0078250   1.0078250  12.0000000   1.0078250
 NucSpn=           1           0           1           0           1           0           1           1           0           1
 AtZEff=  -0.0000000  -0.0000000  -0.0000000  -0.0000000  -0.0000000  -0.0000000  -0.0000000  -0.0000000  -0.0000000  -0.0000000
 NQMom=    0.0000000   0.0000000   0.0000000   0.0000000   0.0000000   0.0000000   0.0000000   0.0000000   0.0000000   0.0000000
 NMagM=    2.7928460   0.0000000   2.7928460   0.0000000   2.7928460   0.0000000   2.7928460   2.7928460   0.0000000   2.7928460
 AtZNuc=   1.0000000   6.0000000   1.0000000   6.0000000   1.0000000   6.0000000   1.0000000   1.0000000   6.0000000   1.0000000

  Atom        21          22          23          24          25          26          27          28
 IAtWgt=          12           1          12           1           1          12           1           1
 AtmWgt=  12.0000000   1.0078250  12.0000000   1.0078250   1.0078250  12.0000000   1.0078250   1.0078250
 NucSpn=           0           1           0           1           1           0           1           1
 AtZEff=  -0.0000000  -0.0000000  -0.0000000  -0.0000000  -0.0000000  -0.0000000  -0.0000000  -0.0000000
 NQMom=    0.0000000   0.0000000   0.0000000   0.0000000   0.0000000   0.0000000   0.0000000   0.0000000
 NMagM=    0.0000000   2.7928460   0.0000000   2.7928460   2.7928460   0.0000000   2.7928460   2.7928460
 AtZNuc=   6.0000000   1.0000000   6.0000000   1.0000000   1.0000000   6.0000000   1.0000000   1.0000000
 Leave Link  101 at Tue Aug  4 21:40:39 2020, MaxMem=  6442450944 cpu:               2.4 elap:               0.1
 (Enter /scratch/scicomp/CentOS/7.3.1611/Haswell/software/Gaussian/g16/l202.exe)
                          Input orientation:                          
 ---------------------------------------------------------------------
 Center     Atomic      Atomic             Coordinates (Angstroms)
 Number     Number       Type             X           Y           Z
 ---------------------------------------------------------------------
      1          6           0       -3.122592   -0.438388    0.249109
      2          6           0       -0.621801   -0.222716   -1.060943
      3          1           0       -4.085324   -0.547212    0.735016
      4          1           0        0.349284   -0.128633   -1.527138
      5          6           0        1.104299    1.412726    0.711533
      6          6           0        0.621801    0.222716    1.060943
      7          1           0        0.516259    2.312051    0.844298
      8          1           0       -0.349284    0.128633    1.527138
      9          6           0        1.489396   -1.000996    1.019772
     10          1           0        1.961797   -1.065850    2.008075
     11          1           0        0.889010   -1.902931    0.914465
     12          6           0        2.428355    1.519137    0.107940
     13          1           0        2.836160    2.506797   -0.071809
     14          6           0        3.122592    0.438388   -0.249109
     15          1           0        4.085324    0.547212   -0.735016
     16          6           0        2.589439   -0.953530   -0.045302
     17          1           0        2.226867   -1.339383   -1.006111
     18          1           0        3.400958   -1.623074    0.247309
     19          6           0       -1.104299   -1.412726   -0.711533
     20          1           0       -0.516259   -2.312051   -0.844298
     21          6           0       -2.428355   -1.519137   -0.107940
     22          1           0       -2.836160   -2.506797    0.071809
     23          6           0       -1.489396    1.000996   -1.019772
     24          1           0       -0.889010    1.902931   -0.914465
     25          1           0       -1.961797    1.065850   -2.008075
     26          6           0       -2.589439    0.953530    0.045302
     27          1           0       -3.400958    1.623074   -0.247309
     28          1           0       -2.226867    1.339383    1.006111
 ---------------------------------------------------------------------
                    Distance matrix (angstroms):
                    1          2          3          4          5
     1  C    0.000000
     2  C    2.831379   0.000000
     3  H    1.083882   3.914940   0.000000
     4  H    3.912151   1.081293   4.995828   0.000000
     5  C    4.637571   2.965765   5.547440   2.820901   0.000000
     6  C    3.888009   2.499471   4.780799   2.626000   1.330795
     7  H    4.600044   3.369001   5.418662   3.407129   1.082683
     8  H    3.105818   2.626000   3.878430   3.143690   2.104046
     9  C    4.709658   3.064677   5.600403   2.923632   2.463608
    10  H    5.416519   4.099357   6.201398   3.997037   2.925690
    11  H    4.322098   3.001318   5.158893   3.066083   3.328830
    12  C    5.887686   3.701863   6.862291   3.116274   1.459031
    13  H    6.654610   4.515099   7.608211   3.904872   2.193162
    14  C    6.326079   3.888009   7.341251   3.105818   2.438375
    15  H    7.341251   4.780799   8.373664   3.878430   3.424636
    16  C    5.742765   3.446401   6.732492   2.809731   2.894410
    17  H    5.568131   3.060206   6.595666   2.294058   3.432865
    18  H    6.630248   4.455908   7.578902   3.833371   3.834870
    19  C    2.438375   1.330795   3.424636   2.104046   3.858264
    20  H    3.391036   2.103187   4.283353   2.445966   4.349803
    21  C    1.333217   2.419206   2.097799   3.415099   4.663368
    22  H    2.095661   3.376913   2.416656   4.284781   5.594562
    23  C    2.519765   1.500629   3.495007   2.216805   3.145504
    24  H    3.438687   2.147378   4.352058   2.456826   2.618674
    25  H    2.950433   2.086397   3.825687   2.645597   4.113093
    26  C    1.504402   2.545375   2.228363   3.504246   3.781326
    27  H    2.138585   3.434043   2.478601   4.332523   4.610961
    28  H    2.129752   3.047803   2.662066   3.899869   3.344970
                    6          7          8          9         10
     6  C    0.000000
     7  H    2.103187   0.000000
     8  H    1.081293   2.445966   0.000000
     9  C    1.500629   3.457465   2.216805   0.000000
    10  H    2.086397   3.854111   2.645597   1.097320   0.000000
    11  H    2.147378   4.232014   2.456826   1.088595   1.745726
    12  C    2.419206   2.197054   3.415099   2.839745   3.241967
    13  H    3.376913   2.501823   4.284781   3.912791   4.225427
    14  C    2.831379   3.391036   3.912151   2.519765   2.950433
    15  H    3.914940   4.283353   4.995828   3.495007   3.825687
    16  C    2.545375   3.969066   3.504246   1.531904   2.150095
    17  H    3.047803   4.436571   3.899869   2.182332   3.038157
    18  H    3.434043   4.915597   4.332523   2.153543   2.341363
    19  C    2.965765   4.349803   2.820901   3.145504   4.113093
    20  H    3.369001   5.029888   3.407129   3.035832   3.978669
    21  C    3.701863   4.924988   3.116274   4.109620   4.894530
    22  H    4.515099   5.920874   3.904872   4.677233   5.370833
    23  C    3.064677   3.035832   2.923632   4.128064   5.034922
    24  H    3.001318   2.288101   3.066083   4.222663   5.047970
    25  H    4.099357   3.978669   3.997037   5.034922   6.005680
    26  C    3.446401   3.482719   2.809731   4.626733   5.352020
    27  H    4.455908   4.124425   3.833371   5.692697   6.409073
    28  H    3.060206   2.914963   2.294058   4.391830   4.932949
                   11         12         13         14         15
    11  H    0.000000
    12  C    3.838048   0.000000
    13  H    4.920349   1.083553   0.000000
    14  C    3.438687   1.333217   2.095661   0.000000
    15  H    4.352058   2.097799   2.416656   1.083882   0.000000
    16  C    2.171169   2.482642   3.469213   1.504402   2.228363
    17  H    2.407501   3.074548   4.004655   2.129752   2.662066
    18  H    2.614058   3.292244   4.180510   2.138585   2.478601
    19  C    2.618674   4.663368   5.594562   4.637571   5.547440
    20  H    2.288101   4.924988   5.920874   4.600044   5.418662
    21  C    3.492495   5.732830   6.627561   5.887686   6.862291
    22  H    3.866732   6.627561   7.571787   6.654610   7.608211
    23  C    4.222663   4.109620   4.677233   4.709658   5.600403
    24  H    4.581585   3.492495   3.866732   4.322098   5.158893
    25  H    5.047970   4.894530   5.370833   5.416519   6.201398
    26  C    4.584149   5.049960   5.644774   5.742765   6.732492
    27  H    5.673293   5.841053   6.301857   6.630248   7.578902
    28  H    4.497743   4.744483   5.306506   5.568131   6.595666
                   16         17         18         19         20
    16  C    0.000000
    17  H    1.097039   0.000000
    18  H    1.092004   1.740699   0.000000
    19  C    3.781326   3.344970   4.610961   0.000000
    20  H    3.482719   2.914963   4.124425   1.082683   0.000000
    21  C    5.049960   4.744483   5.841053   1.459031   2.197054
    22  H    5.644774   5.306506   6.301857   2.193162   2.501823
    23  C    4.626733   4.391830   5.692697   2.463608   3.457465
    24  H    4.584149   4.497743   5.673293   3.328830   4.232014
    25  H    5.352020   4.932949   6.409073   2.925690   3.854111
    26  C    5.519589   5.436885   6.524151   2.894410   3.969066
    27  H    6.524151   6.405025   7.553025   3.834870   4.915597
    28  H    5.436885   5.573201   6.405025   3.432865   4.436571
                   21         22         23         24         25
    21  C    0.000000
    22  H    1.083553   0.000000
    23  C    2.839745   3.912791   0.000000
    24  H    3.838048   4.920349   1.088595   0.000000
    25  H    3.241967   4.225427   1.097320   1.745726   0.000000
    26  C    2.482642   3.469213   1.531904   2.171169   2.150095
    27  H    3.292244   4.180510   2.153543   2.614058   2.341363
    28  H    3.074548   4.004655   2.182332   2.407501   3.038157
                   26         27         28
    26  C    0.000000
    27  H    1.092004   0.000000
    28  H    1.097039   1.740699   0.000000
 Symmetry turned off by external request.
 Stoichiometry    C12H16
 Framework group  CI[X(C12H16)]
 Deg. of freedom    39
 Full point group                 CI      NOp   2
 Rotational constants (GHZ):           1.8700670           0.6206596           0.5469464
 Leave Link  202 at Tue Aug  4 21:40:39 2020, MaxMem=  6442450944 cpu:               0.3 elap:               0.0
 (Enter /scratch/scicomp/CentOS/7.3.1611/Haswell/software/Gaussian/g16/l301.exe)
 Standard basis: def2TZVP (5D, 7F)
 Ernie: Thresh=  0.10000D-02 Tol=  0.10000D-05 Strict=F.
   468 basis functions,   740 primitive gaussians,   528 cartesian basis functions
    44 alpha electrons       44 beta electrons
       nuclear repulsion energy       685.9079802724 Hartrees.
 IExCor= 4639 DFT=T Ex+Corr=wB97XD ExCW=0 ScaHFX=  1.000000
 ScaDFX=  1.000000  1.000000  1.000000  1.000000 ScalE2=  1.000000  1.000000
 IRadAn=      5 IRanWt=     -1 IRanGd=            0 ICorTp=0 IEmpDi=121
 HFx  wShort=  0.000000 wLong=  0.200000 cFull=  0.222036 cShort=  0.000000 cLong=  0.777964
 DFx  wShort=  0.000000 wLong=  0.200000 cFull=  0.000000 cShort=  0.000000 cLong=  1.000000
 NAtoms=   28 NActive=   28 NUniq=   28 SFac= 1.00D+00 NAtFMM=   60 NAOKFM=F Big=F
 Integral buffers will be    131072 words long.
 Raffenetti 2 integral format.
 Two-electron integral symmetry is turned off.
 R6Disp:  Grimme-D2 Dispersion energy=       -0.0229309712 Hartrees.
 Nuclear repulsion after empirical dispersion term =      685.8850493012 Hartrees.
 Using the following non-standard input for PCM:
 norep  pcmdoc geomview  nodis cav g03defaults noaddsph  tsare=0.075
 Warning! Using old PCM defaults because the g03defaults keyword was found.
 These settings can be overridden by following keywords.
 nsfe=28
 Vmol=95.7726100512575 Rsolv=2.815
 --- end of non-standard input.
 Reading user-defined spheres from input:
 ISph  on   Nord    Re0     Alpha      Xe            Ye            Ze
 --- end of user-defined spheres data.
 ------------------------------------------------------------------------------
 Polarizable Continuum Model (PCM)
 =================================
 Model                : PCM.
 Atomic radii         : UA0 (Simple United Atom Topological Model).
 Polarization charges : Total charges.
 Charge compensation  : None.
 Solution method      : On-the-fly selection.
 Cavity type          : VdW (van der Waals Surface) (Alpha=1.000).
 Cavity algorithm     : GePol (No added spheres)
                        User-defined sphere list used, NSphG=   28.
                        Tesserae with average area of 0.075 Ang**2.
                        Smoothing algorithm: None.
                        Polarization charges: point-like.
                        Self-potential: constant (ISelfS= 1).
                        Self-field    : global E.n sum rule (ISelfD= 3).
 Solvent              : CycloHexane, Eps=   2.016500 Eps(inf)=   2.035188
 ------------------------------------------------------------------------------
 GePol: Number of generator spheres                  =      28
 GePol: Total number of spheres                      =      28
 GePol: Number of exposed spheres                    =      28 (100.00%)
 GePol: Number of tesserae                           =    3817
 GePol: Average area of tesserae                     =       0.06 Ang**2
 GePol: Minimum area of tessera                      =   0.10D-02 Ang**2
 GePol: Maximum area of tessera                      =    0.12395 Ang**2
 GePol: Number of small tesserae                     =       0
 GePol: Fraction of small tesserae (<1% of avg)      =       0.00%
 GePol: Total count of vertices                      =   12644
 GePol: Maximum number of vertices in a tessera      =       6
 GePol: Cavity surface area                          =    231.126 Ang**2
 GePol: Cavity volume                                =    238.500 Ang**3
 PCM non-electrostatic energy =         0.0511490005 Hartrees.
 Nuclear repulsion after PCM non-electrostatic terms =      685.9361983017 Hartrees.
 Leave Link  301 at Tue Aug  4 21:40:39 2020, MaxMem=  6442450944 cpu:               3.2 elap:               0.2
 (Enter /scratch/scicomp/CentOS/7.3.1611/Haswell/software/Gaussian/g16/l302.exe)
 NPDir=0 NMtPBC=     1 NCelOv=     1 NCel=       1 NClECP=     1 NCelD=      1
         NCelK=      1 NCelE2=     1 NClLst=     1 CellRange=     0.0.
 One-electron integrals computed using PRISM.
   1 Symmetry operations used in ECPInt.
 ECPInt:  NShTT=   19306 NPrTT=   56928 LenC2=   18508 LenP2D=   42134.
 LDataN:  DoStor=T MaxTD1= 6 Len=  172
 NBasis=   468 RedAO= T EigKep=  2.32D-05  NBF=   468
 NBsUse=   468 1.00D-06 EigRej= -1.00D+00 NBFU=   468
 Precomputing XC quadrature grid using
 IXCGrd= 4 IRadAn=           5 IRanWt=          -1 IRanGd=           0 AccXCQ= 0.00D+00.
 Generated NRdTot=       0 NPtTot=           0 NUsed=           0 NTot=          32
 NSgBfM=   526   526   526   526   526 MxSgAt=    28 MxSgA2=    28.
 Leave Link  302 at Tue Aug  4 21:40:40 2020, MaxMem=  6442450944 cpu:              11.9 elap:               0.5
 (Enter /scratch/scicomp/CentOS/7.3.1611/Haswell/software/Gaussian/g16/l401.exe)
 ExpMin= 9.52D-02 ExpMax= 1.36D+04 ExpMxC= 4.63D+02 IAcc=3 IRadAn=         5 AccDes= 0.00D+00
 Harris functional with IExCor= 4639 and IRadAn=       5 diagonalized for initial guess.
 HarFok:  IExCor= 4639 AccDes= 0.00D+00 IRadAn=         5 IDoV= 1 UseB2=F ITyADJ=14
 ICtDFT=  3500011 ScaDFX=  1.000000  1.000000  1.000000  1.000000
 FoFCou: FMM=F IPFlag=           0 FMFlag=      100000 FMFlg1=           0
         NFxFlg=           0 DoJE=T BraDBF=F KetDBF=T FulRan=T
         wScrn=  0.000000 ICntrl=       500 IOpCl=  0 I1Cent=   200000004 NGrid=           0
         NMat0=    1 NMatS0=      1 NMatT0=    0 NMatD0=    1 NMtDS0=    0 NMtDT0=    0
 Symmetry not used in FoFCou.
 Harris En= -444.567357808613    
 JPrj=0 DoOrth=F DoCkMO=T.
 Mixing orbitals, IMix= 1 IMixAn=  0 NRI=1 NE=   44 Coef=  7.07106781D-01  7.07106781D-01
 Mixing orbitals, IMix= 1 IMixAn=  0 NRI=1 NE=   44 Coef= -7.07106781D-01  7.07106781D-01
 Initial guess <Sx>= 0.0000 <Sy>= 0.0000 <Sz>= 0.0000 <S**2>= 1.0000 S= 0.6180
 Leave Link  401 at Tue Aug  4 21:40:42 2020, MaxMem=  6442450944 cpu:              47.7 elap:               2.1
 (Enter /scratch/scicomp/CentOS/7.3.1611/Haswell/software/Gaussian/g16/l9999.exe)

 This type of calculation cannot be archived.


 TIME IS IN FACT THE HERO OF THE PLOT. THE TIME
 WITH WHICH WE HAVE TO DEAL IS OF THE ORDER OF TWO
 BILLION YEARS...GIVEN SO MUCH TIME, THE "IMPOSSIBLE"
 BECOMES POSSIBLE, THE POSSIBLE PROBABLE, THE PROBABLE
 VIRTUALLY CERTAIN.  ONE HAS ONLY TO WAIT, TIME
 ITSELF PERFORMS THE MIRACLES.
 "ORIGIN OF LIFE" LECTURES, GEORGE WALD, 1954
 Job cpu time:       0 days  0 hours  1 minutes  7.8 seconds.
 Elapsed time:       0 days  0 hours  0 minutes  3.1 seconds.
 File lengths (MBytes):  RWF=    276 Int=      0 D2E=      0 Chk=      1 Scr=      1
 Normal termination of Gaussian 16 at Tue Aug  4 21:40:42 2020.
 Initial command:
 /scratch/scicomp/CentOS/7.3.1611/Haswell/software/Gaussian/g16/l1.exe "/scratch/bochen/cyclohexadiene-dimerization/wb97xd-def2tzvp/xp-pcm/meso/Gau-81736.inp" -scrdir="/scratch/bochen/cyclohexadiene-dimerization/wb97xd-def2tzvp/xp-pcm/meso/"
 Entering Link 1 = /scratch/scicomp/CentOS/7.3.1611/Haswell/software/Gaussian/g16/l1.exe PID=     82224.
  
 Copyright (c) 1988-2017, Gaussian, Inc.  All Rights Reserved.
  
 This is part of the Gaussian(R) 16 program.  It is based on
 the Gaussian(R) 09 system (copyright 2009, Gaussian, Inc.),
 the Gaussian(R) 03 system (copyright 2003, Gaussian, Inc.),
 the Gaussian(R) 98 system (copyright 1998, Gaussian, Inc.),
 the Gaussian(R) 94 system (copyright 1995, Gaussian, Inc.),
 the Gaussian 92(TM) system (copyright 1992, Gaussian, Inc.),
 the Gaussian 90(TM) system (copyright 1990, Gaussian, Inc.),
 the Gaussian 88(TM) system (copyright 1988, Gaussian, Inc.),
 the Gaussian 86(TM) system (copyright 1986, Carnegie Mellon
 University), and the Gaussian 82(TM) system (copyright 1983,
 Carnegie Mellon University). Gaussian is a federally registered
 trademark of Gaussian, Inc.
  
 This software contains proprietary and confidential information,
 including trade secrets, belonging to Gaussian, Inc.
  
 This software is provided under written license and may be
 used, copied, transmitted, or stored only in accord with that
 written license.
  
 The following legend is applicable only to US Government
 contracts under FAR:
  
                    RESTRICTED RIGHTS LEGEND
  
 Use, reproduction and disclosure by the US Government is
 subject to restrictions as set forth in subparagraphs (a)
 and (c) of the Commercial Computer Software - Restricted
 Rights clause in FAR 52.227-19.
  
 Gaussian, Inc.
 340 Quinnipiac St., Bldg. 40, Wallingford CT 06492
  
  
 ---------------------------------------------------------------
 Warning -- This program may not be used in any manner that
 competes with the business of Gaussian, Inc. or will provide
 assistance to any competitor of Gaussian, Inc.  The licensee
 of this program is prohibited from giving any competitor of
 Gaussian, Inc. access to this program.  By using this program,
 the user acknowledges that Gaussian, Inc. is engaged in the
 business of creating and licensing software in the field of
 computational chemistry and represents and warrants to the
 licensee that it is not a competitor of Gaussian, Inc. and that
 it will not use this program in any manner prohibited above.
 ---------------------------------------------------------------
  

 Cite this work as:
 Gaussian 16, Revision B.01,
 M. J. Frisch, G. W. Trucks, H. B. Schlegel, G. E. Scuseria, 
 M. A. Robb, J. R. Cheeseman, G. Scalmani, V. Barone, 
 G. A. Petersson, H. Nakatsuji, X. Li, M. Caricato, A. V. Marenich, 
 J. Bloino, B. G. Janesko, R. Gomperts, B. Mennucci, H. P. Hratchian, 
 J. V. Ortiz, A. F. Izmaylov, J. L. Sonnenberg, D. Williams-Young, 
 F. Ding, F. Lipparini, F. Egidi, J. Goings, B. Peng, A. Petrone, 
 T. Henderson, D. Ranasinghe, V. G. Zakrzewski, J. Gao, N. Rega, 
 G. Zheng, W. Liang, M. Hada, M. Ehara, K. Toyota, R. Fukuda, 
 J. Hasegawa, M. Ishida, T. Nakajima, Y. Honda, O. Kitao, H. Nakai, 
 T. Vreven, K. Throssell, J. A. Montgomery, Jr., J. E. Peralta, 
 F. Ogliaro, M. J. Bearpark, J. J. Heyd, E. N. Brothers, K. N. Kudin, 
 V. N. Staroverov, T. A. Keith, R. Kobayashi, J. Normand, 
 K. Raghavachari, A. P. Rendell, J. C. Burant, S. S. Iyengar, 
 J. Tomasi, M. Cossi, J. M. Millam, M. Klene, C. Adamo, R. Cammi, 
 J. W. Ochterski, R. L. Martin, K. Morokuma, O. Farkas, 
 J. B. Foresman, and D. J. Fox, Gaussian, Inc., Wallingford CT, 2016.
 
 ******************************************
 Gaussian 16:  ES64L-G16RevB.01 20-Dec-2017
                 4-Aug-2020 
 ******************************************
 %chk=scr.chk
 %nproc=24
 Will use up to   24 processors via shared memory.
 %mem=48GB
 ----------------------------------------------------------------------
 #p uwb97xd guess=mix def2tzvp # scrf=(iefpcm,solvent=Cyclohexane,read)
  nosym guess=only pop=none
 ----------------------------------------------------------------------
 1/38=1,40=2,172=1/1;
 2/12=2,15=1,17=6,18=5,40=1/2;
 3/5=44,7=101,11=2,25=1,30=1,70=2203,72=17,74=-58,89=1,116=2/1,2;
 4/13=-1/1;
 99/5=2/99;
 Leave Link    1 at Tue Aug  4 21:40:42 2020, MaxMem=  6442450944 cpu:               1.4 elap:               0.1
 (Enter /scratch/scicomp/CentOS/7.3.1611/Haswell/software/Gaussian/g16/l101.exe)
 -----------------------------------------------
 endo-2 xp-pcm with Vmol=89.84123994485 cm^3/mol
 -----------------------------------------------
 Symbolic Z-matrix:
 Charge =  0 Multiplicity = 1
 6                    -3.12259  -0.43839   0.24911 
 6                    -0.6218   -0.22272  -1.06094 
 1                    -4.08532  -0.54721   0.73502 
 1                     0.34928  -0.12863  -1.52714 
 6                     1.1043    1.41273   0.71153 
 6                     0.6218    0.22272   1.06094 
 1                     0.51626   2.31205   0.8443 
[...]
 1                    -4.08532  -0.54721   0.73502 
 1                     0.34928  -0.12863  -1.52714 
 6                     1.1043    1.41273   0.71153 
 6                     0.6218    0.22272   1.06094 
 1                     0.51626   2.31205   0.8443 
 1                    -0.34928   0.12863   1.52714 
 6                     1.4894   -1.001     1.01977 
 1                     1.9618   -1.06585   2.00807 
 1                     0.88901  -1.90293   0.91447 
 6                     2.42836   1.51914   0.10794 
 1                     2.83616   2.5068   -0.07181 
 6                     3.12259   0.43839  -0.24911 
 1                     4.08532   0.54721  -0.73502 
 6                     2.58944  -0.95353  -0.0453 
 1                     2.22687  -1.33938  -1.00611 
 1                     3.40096  -1.62307   0.24731 
 6                    -1.1043   -1.41273  -0.71153 
 1                    -0.51626  -2.31205  -0.8443 
 6                    -2.42836  -1.51914  -0.10794 
 1                    -2.83616  -2.5068    0.07181 
 6                    -1.4894    1.001    -1.01977 
 1                    -0.88901   1.90293  -0.91447 
 1                    -1.9618    1.06585  -2.00807 
 6                    -2.58944   0.95353   0.0453 
 1                    -3.40096   1.62307  -0.24731 
 1                    -2.22687   1.33938   1.00611 
 
 ITRead=  0  0  0  0  0  0  0  0  0  0  0  0  0  0  0  0  0  0  0  0
 ITRead=  0  0  0  0  0  0  0  0
 MicOpt= -1 -1 -1 -1 -1 -1 -1 -1 -1 -1 -1 -1 -1 -1 -1 -1 -1 -1 -1 -1
 MicOpt= -1 -1 -1 -1 -1 -1 -1 -1
 NAtoms=     28 NQM=       28 NQMF=       0 NMMI=      0 NMMIF=      0
                NMic=       0 NMicF=      0.
                    Isotopes and Nuclear Properties:
 (Nuclear quadrupole moments (NQMom) in fm**2, nuclear magnetic moments (NMagM)
  in nuclear magnetons)

  Atom         1           2           3           4           5           6           7           8           9          10
 IAtWgt=          12          12           1           1          12          12           1           1          12           1
 AtmWgt=  12.0000000  12.0000000   1.0078250   1.0078250  12.0000000  12.0000000   1.0078250   1.0078250  12.0000000   1.0078250
 NucSpn=           0           0           1           1           0           0           1           1           0           1
 AtZEff=  -0.0000000  -0.0000000  -0.0000000  -0.0000000  -0.0000000  -0.0000000  -0.0000000  -0.0000000  -0.0000000  -0.0000000
 NQMom=    0.0000000   0.0000000   0.0000000   0.0000000   0.0000000   0.0000000   0.0000000   0.0000000   0.0000000   0.0000000
 NMagM=    0.0000000   0.0000000   2.7928460   2.7928460   0.0000000   0.0000000   2.7928460   2.7928460   0.0000000   2.7928460
 AtZNuc=   6.0000000   6.0000000   1.0000000   1.0000000   6.0000000   6.0000000   1.0000000   1.0000000   6.0000000   1.0000000

  Atom        11          12          13          14          15          16          17          18          19          20
 IAtWgt=           1          12           1          12           1          12           1           1          12           1
 AtmWgt=   1.0078250  12.0000000   1.0078250  12.0000000   1.0078250  12.0000000   1.0078250   1.0078250  12.0000000   1.0078250
 NucSpn=           1           0           1           0           1           0           1           1           0           1
 AtZEff=  -0.0000000  -0.0000000  -0.0000000  -0.0000000  -0.0000000  -0.0000000  -0.0000000  -0.0000000  -0.0000000  -0.0000000
 NQMom=    0.0000000   0.0000000   0.0000000   0.0000000   0.0000000   0.0000000   0.0000000   0.0000000   0.0000000   0.0000000
 NMagM=    2.7928460   0.0000000   2.7928460   0.0000000   2.7928460   0.0000000   2.7928460   2.7928460   0.0000000   2.7928460
 AtZNuc=   1.0000000   6.0000000   1.0000000   6.0000000   1.0000000   6.0000000   1.0000000   1.0000000   6.0000000   1.0000000

  Atom        21          22          23          24          25          26          27          28
 IAtWgt=          12           1          12           1           1          12           1           1
 AtmWgt=  12.0000000   1.0078250  12.0000000   1.0078250   1.0078250  12.0000000   1.0078250   1.0078250
 NucSpn=           0           1           0           1           1           0           1           1
 AtZEff=  -0.0000000  -0.0000000  -0.0000000  -0.0000000  -0.0000000  -0.0000000  -0.0000000  -0.0000000
 NQMom=    0.0000000   0.0000000   0.0000000   0.0000000   0.0000000   0.0000000   0.0000000   0.0000000
 NMagM=    0.0000000   2.7928460   0.0000000   2.7928460   2.7928460   0.0000000   2.7928460   2.7928460
 AtZNuc=   6.0000000   1.0000000   6.0000000   1.0000000   1.0000000   6.0000000   1.0000000   1.0000000
 Leave Link  101 at Tue Aug  4 21:40:53 2020, MaxMem=  6442450944 cpu:               2.4 elap:               0.1
 (Enter /scratch/scicomp/CentOS/7.3.1611/Haswell/software/Gaussian/g16/l202.exe)
                          Input orientation:                          
 ---------------------------------------------------------------------
 Center     Atomic      Atomic             Coordinates (Angstroms)
 Number     Number       Type             X           Y           Z
 ---------------------------------------------------------------------
      1          6           0       -3.122592   -0.438388    0.249109
      2          6           0       -0.621801   -0.222716   -1.060943
      3          1           0       -4.085324   -0.547212    0.735016
      4          1           0        0.349284   -0.128633   -1.527138
      5          6           0        1.104299    1.412726    0.711533
      6          6           0        0.621801    0.222716    1.060943
      7          1           0        0.516259    2.312051    0.844298
      8          1           0       -0.349284    0.128633    1.527138
      9          6           0        1.489396   -1.000996    1.019772
     10          1           0        1.961797   -1.065850    2.008075
     11          1           0        0.889010   -1.902931    0.914465
     12          6           0        2.428355    1.519137    0.107940
     13          1           0        2.836160    2.506797   -0.071809
     14          6           0        3.122592    0.438388   -0.249109
     15          1           0        4.085324    0.547212   -0.735016
     16          6           0        2.589439   -0.953530   -0.045302
     17          1           0        2.226867   -1.339383   -1.006111
     18          1           0        3.400958   -1.623074    0.247309
     19          6           0       -1.104299   -1.412726   -0.711533
     20          1           0       -0.516259   -2.312051   -0.844298
     21          6           0       -2.428355   -1.519137   -0.107940
     22          1           0       -2.836160   -2.506797    0.071809
     23          6           0       -1.489396    1.000996   -1.019772
     24          1           0       -0.889010    1.902931   -0.914465
     25          1           0       -1.961797    1.065850   -2.008075
     26          6           0       -2.589439    0.953530    0.045302
     27          1           0       -3.400958    1.623074   -0.247309
     28          1           0       -2.226867    1.339383    1.006111
 ---------------------------------------------------------------------
                    Distance matrix (angstroms):
                    1          2          3          4          5
     1  C    0.000000
     2  C    2.831379   0.000000
     3  H    1.083882   3.914940   0.000000
     4  H    3.912151   1.081293   4.995828   0.000000
     5  C    4.637571   2.965765   5.547440   2.820901   0.000000
     6  C    3.888009   2.499471   4.780799   2.626000   1.330795
     7  H    4.600044   3.369001   5.418662   3.407129   1.082683
     8  H    3.105818   2.626000   3.878430   3.143690   2.104046
     9  C    4.709658   3.064677   5.600403   2.923632   2.463608
    10  H    5.416519   4.099357   6.201398   3.997037   2.925690
    11  H    4.322098   3.001318   5.158893   3.066083   3.328830
    12  C    5.887686   3.701863   6.862291   3.116274   1.459031
    13  H    6.654610   4.515099   7.608211   3.904872   2.193162
    14  C    6.326079   3.888009   7.341251   3.105818   2.438375
    15  H    7.341251   4.780799   8.373664   3.878430   3.424636
    16  C    5.742765   3.446401   6.732492   2.809731   2.894410
    17  H    5.568131   3.060206   6.595666   2.294058   3.432865
    18  H    6.630248   4.455908   7.578902   3.833371   3.834870
    19  C    2.438375   1.330795   3.424636   2.104046   3.858264
    20  H    3.391036   2.103187   4.283353   2.445966   4.349803
    21  C    1.333217   2.419206   2.097799   3.415099   4.663368
    22  H    2.095661   3.376913   2.416656   4.284781   5.594562
    23  C    2.519765   1.500629   3.495007   2.216805   3.145504
    24  H    3.438687   2.147378   4.352058   2.456826   2.618674
    25  H    2.950433   2.086397   3.825687   2.645597   4.113093
    26  C    1.504402   2.545375   2.228363   3.504246   3.781326
    27  H    2.138585   3.434043   2.478601   4.332523   4.610961
    28  H    2.129752   3.047803   2.662066   3.899869   3.344970
                    6          7          8          9         10
     6  C    0.000000
     7  H    2.103187   0.000000
     8  H    1.081293   2.445966   0.000000
     9  C    1.500629   3.457465   2.216805   0.000000
    10  H    2.086397   3.854111   2.645597   1.097320   0.000000
    11  H    2.147378   4.232014   2.456826   1.088595   1.745726
    12  C    2.419206   2.197054   3.415099   2.839745   3.241967
    13  H    3.376913   2.501823   4.284781   3.912791   4.225427
    14  C    2.831379   3.391036   3.912151   2.519765   2.950433
    15  H    3.914940   4.283353   4.995828   3.495007   3.825687
    16  C    2.545375   3.969066   3.504246   1.531904   2.150095
    17  H    3.047803   4.436571   3.899869   2.182332   3.038157
    18  H    3.434043   4.915597   4.332523   2.153543   2.341363
    19  C    2.965765   4.349803   2.820901   3.145504   4.113093
    20  H    3.369001   5.029888   3.407129   3.035832   3.978669
    21  C    3.701863   4.924988   3.116274   4.109620   4.894530
    22  H    4.515099   5.920874   3.904872   4.677233   5.370833
    23  C    3.064677   3.035832   2.923632   4.128064   5.034922
    24  H    3.001318   2.288101   3.066083   4.222663   5.047970
    25  H    4.099357   3.978669   3.997037   5.034922   6.005680
    26  C    3.446401   3.482719   2.809731   4.626733   5.352020
    27  H    4.455908   4.124425   3.833371   5.692697   6.409073
    28  H    3.060206   2.914963   2.294058   4.391830   4.932949
                   11         12         13         14         15
    11  H    0.000000
    12  C    3.838048   0.000000
    13  H    4.920349   1.083553   0.000000
    14  C    3.438687   1.333217   2.095661   0.000000
    15  H    4.352058   2.097799   2.416656   1.083882   0.000000
    16  C    2.171169   2.482642   3.469213   1.504402   2.228363
    17  H    2.407501   3.074548   4.004655   2.129752   2.662066
    18  H    2.614058   3.292244   4.180510   2.138585   2.478601
    19  C    2.618674   4.663368   5.594562   4.637571   5.547440
    20  H    2.288101   4.924988   5.920874   4.600044   5.418662
    21  C    3.492495   5.732830   6.627561   5.887686   6.862291
    22  H    3.866732   6.627561   7.571787   6.654610   7.608211
    23  C    4.222663   4.109620   4.677233   4.709658   5.600403
    24  H    4.581585   3.492495   3.866732   4.322098   5.158893
    25  H    5.047970   4.894530   5.370833   5.416519   6.201398
    26  C    4.584149   5.049960   5.644774   5.742765   6.732492
    27  H    5.673293   5.841053   6.301857   6.630248   7.578902
    28  H    4.497743   4.744483   5.306506   5.568131   6.595666
                   16         17         18         19         20
    16  C    0.000000
    17  H    1.097039   0.000000
    18  H    1.092004   1.740699   0.000000
    19  C    3.781326   3.344970   4.610961   0.000000
    20  H    3.482719   2.914963   4.124425   1.082683   0.000000
    21  C    5.049960   4.744483   5.841053   1.459031   2.197054
    22  H    5.644774   5.306506   6.301857   2.193162   2.501823
    23  C    4.626733   4.391830   5.692697   2.463608   3.457465
    24  H    4.584149   4.497743   5.673293   3.328830   4.232014
    25  H    5.352020   4.932949   6.409073   2.925690   3.854111
    26  C    5.519589   5.436885   6.524151   2.894410   3.969066
    27  H    6.524151   6.405025   7.553025   3.834870   4.915597
    28  H    5.436885   5.573201   6.405025   3.432865   4.436571
                   21         22         23         24         25
    21  C    0.000000
    22  H    1.083553   0.000000
    23  C    2.839745   3.912791   0.000000
    24  H    3.838048   4.920349   1.088595   0.000000
    25  H    3.241967   4.225427   1.097320   1.745726   0.000000
    26  C    2.482642   3.469213   1.531904   2.171169   2.150095
    27  H    3.292244   4.180510   2.153543   2.614058   2.341363
    28  H    3.074548   4.004655   2.182332   2.407501   3.038157
                   26         27         28
    26  C    0.000000
    27  H    1.092004   0.000000
    28  H    1.097039   1.740699   0.000000
 Symmetry turned off by external request.
 Stoichiometry    C12H16
 Framework group  CI[X(C12H16)]
 Deg. of freedom    39
 Full point group                 CI      NOp   2
 Rotational constants (GHZ):           1.8700670           0.6206596           0.5469464
 Leave Link  202 at Tue Aug  4 21:40:53 2020, MaxMem=  6442450944 cpu:               0.3 elap:               0.0
 (Enter /scratch/scicomp/CentOS/7.3.1611/Haswell/software/Gaussian/g16/l301.exe)
 Standard basis: def2TZVP (5D, 7F)
 Ernie: Thresh=  0.10000D-02 Tol=  0.10000D-05 Strict=F.
   468 basis functions,   740 primitive gaussians,   528 cartesian basis functions
    44 alpha electrons       44 beta electrons
       nuclear repulsion energy       685.9079802724 Hartrees.
 IExCor= 4639 DFT=T Ex+Corr=wB97XD ExCW=0 ScaHFX=  1.000000
 ScaDFX=  1.000000  1.000000  1.000000  1.000000 ScalE2=  1.000000  1.000000
 IRadAn=      5 IRanWt=     -1 IRanGd=            0 ICorTp=0 IEmpDi=121
 HFx  wShort=  0.000000 wLong=  0.200000 cFull=  0.222036 cShort=  0.000000 cLong=  0.777964
 DFx  wShort=  0.000000 wLong=  0.200000 cFull=  0.000000 cShort=  0.000000 cLong=  1.000000
 NAtoms=   28 NActive=   28 NUniq=   28 SFac= 1.00D+00 NAtFMM=   60 NAOKFM=F Big=F
 Integral buffers will be    131072 words long.
 Raffenetti 2 integral format.
 Two-electron integral symmetry is turned off.
 R6Disp:  Grimme-D2 Dispersion energy=       -0.0229309712 Hartrees.
 Nuclear repulsion after empirical dispersion term =      685.8850493012 Hartrees.
 Using the following non-standard input for PCM:
 norep  pcmdoc geomview  nodis cav g03defaults noaddsph  tsare=0.075
 Warning! Using old PCM defaults because the g03defaults keyword was found.
 These settings can be overridden by following keywords.
 nsfe=28
 Vmol=78.9041178242053 Rsolv=2.815
 --- end of non-standard input.
 Reading user-defined spheres from input:
 ISph  on   Nord    Re0     Alpha      Xe            Ye            Ze
 --- end of user-defined spheres data.
 ------------------------------------------------------------------------------
 Polarizable Continuum Model (PCM)
 =================================
 Model                : PCM.
 Atomic radii         : UA0 (Simple United Atom Topological Model).
 Polarization charges : Total charges.
 Charge compensation  : None.
 Solution method      : On-the-fly selection.
 Cavity type          : VdW (van der Waals Surface) (Alpha=1.000).
 Cavity algorithm     : GePol (No added spheres)
                        User-defined sphere list used, NSphG=   28.
                        Tesserae with average area of 0.075 Ang**2.
                        Smoothing algorithm: None.
                        Polarization charges: point-like.
                        Self-potential: constant (ISelfS= 1).
                        Self-field    : global E.n sum rule (ISelfD= 3).
 Solvent              : CycloHexane, Eps=   2.016500 Eps(inf)=   2.035188
 ------------------------------------------------------------------------------
 GePol: Number of generator spheres                  =      28
 GePol: Total number of spheres                      =      28
 GePol: Number of exposed spheres                    =      28 (100.00%)
 GePol: Number of tesserae                           =    3817
 GePol: Average area of tesserae                     =       0.06 Ang**2
 GePol: Minimum area of tessera                      =   0.10D-02 Ang**2
 GePol: Maximum area of tessera                      =    0.12395 Ang**2
 GePol: Number of small tesserae                     =       0
 GePol: Fraction of small tesserae (<1% of avg)      =       0.00%
 GePol: Total count of vertices                      =   12644
 GePol: Maximum number of vertices in a tessera      =       6
 GePol: Cavity surface area                          =    231.126 Ang**2
 GePol: Cavity volume                                =    238.500 Ang**3
 PCM non-electrostatic energy =         0.1133785717 Hartrees.
 Nuclear repulsion after PCM non-electrostatic terms =      685.9984278729 Hartrees.
 Leave Link  301 at Tue Aug  4 21:40:53 2020, MaxMem=  6442450944 cpu:               3.1 elap:               0.2
 (Enter /scratch/scicomp/CentOS/7.3.1611/Haswell/software/Gaussian/g16/l302.exe)
 NPDir=0 NMtPBC=     1 NCelOv=     1 NCel=       1 NClECP=     1 NCelD=      1
         NCelK=      1 NCelE2=     1 NClLst=     1 CellRange=     0.0.
 One-electron integrals computed using PRISM.
   1 Symmetry operations used in ECPInt.
 ECPInt:  NShTT=   19306 NPrTT=   56928 LenC2=   18508 LenP2D=   42134.
 LDataN:  DoStor=T MaxTD1= 6 Len=  172
 NBasis=   468 RedAO= T EigKep=  2.32D-05  NBF=   468
 NBsUse=   468 1.00D-06 EigRej= -1.00D+00 NBFU=   468
 Precomputing XC quadrature grid using
 IXCGrd= 4 IRadAn=           5 IRanWt=          -1 IRanGd=           0 AccXCQ= 0.00D+00.
 Generated NRdTot=       0 NPtTot=           0 NUsed=           0 NTot=          32
 NSgBfM=   526   526   526   526   526 MxSgAt=    28 MxSgA2=    28.
 Leave Link  302 at Tue Aug  4 21:40:53 2020, MaxMem=  6442450944 cpu:              11.7 elap:               0.5
 (Enter /scratch/scicomp/CentOS/7.3.1611/Haswell/software/Gaussian/g16/l401.exe)
 ExpMin= 9.52D-02 ExpMax= 1.36D+04 ExpMxC= 4.63D+02 IAcc=3 IRadAn=         5 AccDes= 0.00D+00
 Harris functional with IExCor= 4639 and IRadAn=       5 diagonalized for initial guess.
 HarFok:  IExCor= 4639 AccDes= 0.00D+00 IRadAn=         5 IDoV= 1 UseB2=F ITyADJ=14
 ICtDFT=  3500011 ScaDFX=  1.000000  1.000000  1.000000  1.000000
 FoFCou: FMM=F IPFlag=           0 FMFlag=      100000 FMFlg1=           0
         NFxFlg=           0 DoJE=T BraDBF=F KetDBF=T FulRan=T
         wScrn=  0.000000 ICntrl=       500 IOpCl=  0 I1Cent=   200000004 NGrid=           0
         NMat0=    1 NMatS0=      1 NMatT0=    0 NMatD0=    1 NMtDS0=    0 NMtDT0=    0
 Symmetry not used in FoFCou.
 Harris En= -444.505128237376    
 JPrj=0 DoOrth=F DoCkMO=T.
 Mixing orbitals, IMix= 1 IMixAn=  0 NRI=1 NE=   44 Coef=  7.07106781D-01  7.07106781D-01
 Mixing orbitals, IMix= 1 IMixAn=  0 NRI=1 NE=   44 Coef= -7.07106781D-01  7.07106781D-01
 Initial guess <Sx>= 0.0000 <Sy>= 0.0000 <Sz>= 0.0000 <S**2>= 1.0000 S= 0.6180
 Leave Link  401 at Tue Aug  4 21:40:56 2020, MaxMem=  6442450944 cpu:              47.2 elap:               2.0
 (Enter /scratch/scicomp/CentOS/7.3.1611/Haswell/software/Gaussian/g16/l9999.exe)

 This type of calculation cannot be archived.


 The best way to pay for a lovely moment is to enjoy it.
 -- Richard Bach
 Job cpu time:       0 days  0 hours  1 minutes  7.0 seconds.
 Elapsed time:       0 days  0 hours  0 minutes  3.1 seconds.
 File lengths (MBytes):  RWF=    276 Int=      0 D2E=      0 Chk=      1 Scr=      1
 Normal termination of Gaussian 16 at Tue Aug  4 21:40:56 2020.
