 Entering Gaussian System, Link 0=g16
 Input=meso-TS_52_2_xp-Ger.com
 Output=meso-TS_52_2_xp-Ger.log
 Initial command:
 /scratch/scicomp/CentOS/7.3.1611/Haswell/software/Gaussian/g16/l1.exe "/scratch/bochen/cyclohexadiene-dimerization/wb97xd-def2tzvp/xp-pcm/meso/Gau-253042.inp" -scrdir="/scratch/bochen/cyclohexadiene-dimerization/wb97xd-def2tzvp/xp-pcm/meso/"
 Entering Link 1 = /scratch/scicomp/CentOS/7.3.1611/Haswell/software/Gaussian/g16/l1.exe PID=    253043.
  
 Copyright (c) 1988-2017, Gaussian, Inc.  All Rights Reserved.
  
 This is part of the Gaussian(R) 16 program.  It is based on
 the Gaussian(R) 09 system (copyright 2009, Gaussian, Inc.),
 the Gaussian(R) 03 system (copyright 2003, Gaussian, Inc.),
 the Gaussian(R) 98 system (copyright 1998, Gaussian, Inc.),
 the Gaussian(R) 94 system (copyright 1995, Gaussian, Inc.),
 the Gaussian 92(TM) system (copyright 1992, Gaussian, Inc.),
 the Gaussian 90(TM) system (copyright 1990, Gaussian, Inc.),
 the Gaussian 88(TM) system (copyright 1988, Gaussian, Inc.),
 the Gaussian 86(TM) system (copyright 1986, Carnegie Mellon
 University), and the Gaussian 82(TM) system (copyright 1983,
 Carnegie Mellon University). Gaussian is a federally registered
 trademark of Gaussian, Inc.
  
 This software contains proprietary and confidential information,
 including trade secrets, belonging to Gaussian, Inc.
  
 This software is provided under written license and may be
 used, copied, transmitted, or stored only in accord with that
 written license.
  
 The following legend is applicable only to US Government
 contracts under FAR:
  
                    RESTRICTED RIGHTS LEGEND
  
 Use, reproduction and disclosure by the US Government is
 subject to restrictions as set forth in subparagraphs (a)
 and (c) of the Commercial Computer Software - Restricted
 Rights clause in FAR 52.227-19.
  
 Gaussian, Inc.
 340 Quinnipiac St., Bldg. 40, Wallingford CT 06492
  
  
 ---------------------------------------------------------------
 Warning -- This program may not be used in any manner that
 competes with the business of Gaussian, Inc. or will provide
 assistance to any competitor of Gaussian, Inc.  The licensee
 of this program is prohibited from giving any competitor of
 Gaussian, Inc. access to this program.  By using this program,
 the user acknowledges that Gaussian, Inc. is engaged in the
 business of creating and licensing software in the field of
 computational chemistry and represents and warrants to the
 licensee that it is not a competitor of Gaussian, Inc. and that
 it will not use this program in any manner prohibited above.
 ---------------------------------------------------------------
  

 Cite this work as:
 Gaussian 16, Revision B.01,
 M. J. Frisch, G. W. Trucks, H. B. Schlegel, G. E. Scuseria, 
 M. A. Robb, J. R. Cheeseman, G. Scalmani, V. Barone, 
 G. A. Petersson, H. Nakatsuji, X. Li, M. Caricato, A. V. Marenich, 
 J. Bloino, B. G. Janesko, R. Gomperts, B. Mennucci, H. P. Hratchian, 
 J. V. Ortiz, A. F. Izmaylov, J. L. Sonnenberg, D. Williams-Young, 
 F. Ding, F. Lipparini, F. Egidi, J. Goings, B. Peng, A. Petrone, 
 T. Henderson, D. Ranasinghe, V. G. Zakrzewski, J. Gao, N. Rega, 
 G. Zheng, W. Liang, M. Hada, M. Ehara, K. Toyota, R. Fukuda, 
 J. Hasegawa, M. Ishida, T. Nakajima, Y. Honda, O. Kitao, H. Nakai, 
 T. Vreven, K. Throssell, J. A. Montgomery, Jr., J. E. Peralta, 
 F. Ogliaro, M. J. Bearpark, J. J. Heyd, E. N. Brothers, K. N. Kudin, 
 V. N. Staroverov, T. A. Keith, R. Kobayashi, J. Normand, 
 K. Raghavachari, A. P. Rendell, J. C. Burant, S. S. Iyengar, 
 J. Tomasi, M. Cossi, J. M. Millam, M. Klene, C. Adamo, R. Cammi, 
 J. W. Ochterski, R. L. Martin, K. Morokuma, O. Farkas, 
 J. B. Foresman, and D. J. Fox, Gaussian, Inc., Wallingford CT, 2016.
 
 ******************************************
 Gaussian 16:  ES64L-G16RevB.01 20-Dec-2017
                 4-Aug-2020 
 ******************************************
 %chk=meso-TS_52_2_xp-12.chk
 %nproc=24
 Will use up to   24 processors via shared memory.
 %mem=48GB
 ----------------------------------------------------------------------
 #p uwb97xd guess=mix def2tzvp # scrf=(iefpcm,solvent=Cyclohexane,read)
  nosym 6d 10f
 ----------------------------------------------------------------------
 1/38=1,40=2,172=1/1;
 2/12=2,15=1,17=6,18=5,40=1/2;
 3/5=44,7=101,8=22,11=2,25=1,30=1,70=2203,72=17,74=-58,116=2/1,2,3;
 4/13=-1/1;
 5/5=2,38=5,53=17/2;
 6/7=2,8=2,9=2,10=2,28=1/1;
 99/5=1,9=1/99;
 Leave Link    1 at Tue Aug  4 01:59:52 2020, MaxMem=  6442450944 cpu:               4.5 elap:               0.2
 (Enter /scratch/scicomp/CentOS/7.3.1611/Haswell/software/Gaussian/g16/l101.exe)
 -----------------------
 endo-2 xp-pcm for eta=3
 -----------------------
 Symbolic Z-matrix:
 Charge =  0 Multiplicity = 1
 6                    -3.12757  -0.44149   0.26343 
 6                    -0.73129  -0.25083  -1.23676 
 1                    -4.07021  -0.53339   0.79051 
 1                     0.21957  -0.16851  -1.74848 
 6                     1.16778   1.42576   0.79285 
 6                     0.73129   0.25083   1.23676 
 1                     0.57495   2.3223    0.92928 
 1                    -0.21957   0.16851   1.74848 
 6                     1.56462  -0.9921    1.11581 
 1                     2.0971   -1.12399   2.06641 
 1                     0.92006  -1.865     1.00856 
 6                     2.45725   1.53015   0.10966 
 1                     2.85689   2.51557  -0.09811 
 6                     3.12757   0.44149  -0.26343 
 1                     4.07021   0.53339  -0.79051 
 6                     2.57514  -0.93922  -0.03521 
 1                     2.1064   -1.27978  -0.96668 
 1                     3.38777  -1.64222   0.15785 
 6                    -1.16778  -1.42576  -0.79285 
 1                    -0.57495  -2.3223   -0.92928 
 6                    -2.45725  -1.53015  -0.10966 
 1                    -2.85689  -2.51557   0.09811 
 6                    -1.56462   0.9921   -1.11581 
 1                    -0.92006   1.865    -1.00856 
 1                    -2.0971    1.12399  -2.06641 
 6                    -2.57514   0.93922   0.03521 
 1                    -3.38777   1.64222  -0.15785 
 1                    -2.1064    1.27978   0.96668 
 
 ITRead=  0  0  0  0  0  0  0  0  0  0  0  0  0  0  0  0  0  0  0  0
 ITRead=  0  0  0  0  0  0  0  0
 MicOpt= -1 -1 -1 -1 -1 -1 -1 -1 -1 -1 -1 -1 -1 -1 -1 -1 -1 -1 -1 -1
 MicOpt= -1 -1 -1 -1 -1 -1 -1 -1
 NAtoms=     28 NQM=       28 NQMF=       0 NMMI=      0 NMMIF=      0
                NMic=       0 NMicF=      0.
                    Isotopes and Nuclear Properties:
 (Nuclear quadrupole moments (NQMom) in fm**2, nuclear magnetic moments (NMagM)
  in nuclear magnetons)

  Atom         1           2           3           4           5           6           7           8           9          10
 IAtWgt=          12          12           1           1          12          12           1           1          12           1
 AtmWgt=  12.0000000  12.0000000   1.0078250   1.0078250  12.0000000  12.0000000   1.0078250   1.0078250  12.0000000   1.0078250
 NucSpn=           0           0           1           1           0           0           1           1           0           1
 AtZEff=  -0.0000000  -0.0000000  -0.0000000  -0.0000000  -0.0000000  -0.0000000  -0.0000000  -0.0000000  -0.0000000  -0.0000000
 NQMom=    0.0000000   0.0000000   0.0000000   0.0000000   0.0000000   0.0000000   0.0000000   0.0000000   0.0000000   0.0000000
 NMagM=    0.0000000   0.0000000   2.7928460   2.7928460   0.0000000   0.0000000   2.7928460   2.7928460   0.0000000   2.7928460
 AtZNuc=   6.0000000   6.0000000   1.0000000   1.0000000   6.0000000   6.0000000   1.0000000   1.0000000   6.0000000   1.0000000

  Atom        11          12          13          14          15          16          17          18          19          20
 IAtWgt=           1          12           1          12           1          12           1           1          12           1
 AtmWgt=   1.0078250  12.0000000   1.0078250  12.0000000   1.0078250  12.0000000   1.0078250   1.0078250  12.0000000   1.0078250
 NucSpn=           1           0           1           0           1           0           1           1           0           1
 AtZEff=  -0.0000000  -0.0000000  -0.0000000  -0.0000000  -0.0000000  -0.0000000  -0.0000000  -0.0000000  -0.0000000  -0.0000000
 NQMom=    0.0000000   0.0000000   0.0000000   0.0000000   0.0000000   0.0000000   0.0000000   0.0000000   0.0000000   0.0000000
 NMagM=    2.7928460   0.0000000   2.7928460   0.0000000   2.7928460   0.0000000   2.7928460   2.7928460   0.0000000   2.7928460
 AtZNuc=   1.0000000   6.0000000   1.0000000   6.0000000   1.0000000   6.0000000   1.0000000   1.0000000   6.0000000   1.0000000

  Atom        21          22          23          24          25          26          27          28
 IAtWgt=          12           1          12           1           1          12           1           1
 AtmWgt=  12.0000000   1.0078250  12.0000000   1.0078250   1.0078250  12.0000000   1.0078250   1.0078250
 NucSpn=           0           1           0           1           1           0           1           1
 AtZEff=  -0.0000000  -0.0000000  -0.0000000  -0.0000000  -0.0000000  -0.0000000  -0.0000000  -0.0000000
 NQMom=    0.0000000   0.0000000   0.0000000   0.0000000   0.0000000   0.0000000   0.0000000   0.0000000
 NMagM=    0.0000000   2.7928460   0.0000000   2.7928460   2.7928460   0.0000000   2.7928460   2.7928460
 AtZNuc=   6.0000000   1.0000000   6.0000000   1.0000000   1.0000000   6.0000000   1.0000000   1.0000000
 Leave Link  101 at Tue Aug  4 01:59:52 2020, MaxMem=  6442450944 cpu:               2.4 elap:               0.1
 (Enter /scratch/scicomp/CentOS/7.3.1611/Haswell/software/Gaussian/g16/l202.exe)
                          Input orientation:                          
 ---------------------------------------------------------------------
 Center     Atomic      Atomic             Coordinates (Angstroms)
 Number     Number       Type             X           Y           Z
 ---------------------------------------------------------------------
      1          6           0       -3.127568   -0.441485    0.263433
      2          6           0       -0.731288   -0.250831   -1.236755
      3          1           0       -4.070209   -0.533386    0.790505
      4          1           0        0.219568   -0.168512   -1.748484
      5          6           0        1.167775    1.425763    0.792854
      6          6           0        0.731288    0.250831    1.236755
      7          1           0        0.574947    2.322303    0.929282
      8          1           0       -0.219568    0.168512    1.748484
      9          6           0        1.564621   -0.992103    1.115813
     10          1           0        2.097096   -1.123993    2.066407
     11          1           0        0.920060   -1.865000    1.008560
     12          6           0        2.457254    1.530153    0.109662
     13          1           0        2.856885    2.515574   -0.098107
     14          6           0        3.127568    0.441485   -0.263433
     15          1           0        4.070209    0.533386   -0.790505
     16          6           0        2.575144   -0.939221   -0.035211
     17          1           0        2.106401   -1.279780   -0.966682
     18          1           0        3.387766   -1.642218    0.157850
     19          6           0       -1.167775   -1.425763   -0.792854
     20          1           0       -0.574947   -2.322303   -0.929282
     21          6           0       -2.457254   -1.530153   -0.109662
     22          1           0       -2.856885   -2.515574    0.098107
     23          6           0       -1.564621    0.992103   -1.115813
     24          1           0       -0.920060    1.865000   -1.008560
     25          1           0       -2.097096    1.123993   -2.066407
     26          6           0       -2.575144    0.939221    0.035211
     27          1           0       -3.387766    1.642218   -0.157850
     28          1           0       -2.106402    1.279780    0.966682
 ---------------------------------------------------------------------
                    Distance matrix (angstroms):
                    1          2          3          4          5
     1  C    0.000000
     2  C    2.833562   0.000000
     3  H    1.083892   3.916378   0.000000
     4  H    3.914798   1.082945   4.998178   0.000000
     5  C    4.713478   3.246031   5.592383   3.146301   0.000000
     6  C    4.039483   2.917027   4.885541   3.057672   1.329674
     7  H    4.668029   3.608183   5.454511   3.674355   1.083440
     8  H    3.321737   3.057672   4.029618   3.540510   2.102054
     9  C    4.800663   3.369756   5.662822   3.269811   2.471410
    10  H    5.568990   4.435431   6.325535   4.357918   2.997804
    11  H    4.354871   3.220859   5.169480   3.312107   3.307115
    12  C    5.924630   3.892498   6.879645   3.368295   1.463012
    13  H    6.684952   4.671670   7.620395   4.108954   2.198771
    14  C    6.339081   4.039483   7.339561   3.321737   2.434201
    15  H    7.339561   4.885541   8.360861   4.029618   3.424542
    16  C    5.732177   3.584701   6.708742   3.012978   2.873940
    17  H    5.441540   3.030537   6.464930   2.325139   3.361093
    18  H    6.625895   4.565905   7.566449   3.980377   3.839804
    19  C    2.434201   1.329674   3.424542   2.102054   4.012538
    20  H    3.387613   2.099995   4.286578   2.437450   4.477815
    21  C    1.331810   2.426100   2.098921   3.421283   4.763697
    22  H    2.098201   3.380692   2.425003   4.287559   5.675799
    23  C    2.529881   1.501318   3.498448   2.220502   3.361110
    24  H    3.436703   2.136457   4.348831   2.445692   2.792325
    25  H    2.990108   2.108055   3.847340   2.671811   4.350382
    26  C    1.504529   2.536519   2.230305   3.495577   3.849700
    27  H    2.141728   3.435774   2.469485   4.338400   4.658717
    28  H    2.121342   3.014771   2.678647   3.857436   3.282036
                    6          7          8          9         10
     6  C    0.000000
     7  H    2.099995   0.000000
     8  H    1.082945   2.437450   0.000000
     9  C    1.501318   3.464035   2.220502   0.000000
    10  H    2.108055   3.935346   2.671811   1.097522   0.000000
    11  H    2.136457   4.202249   2.445692   1.090372   1.747440
    12  C    2.426100   2.200536   3.421283   2.858480   3.317085
    13  H    3.380692   2.510005   4.287559   3.930311   4.302191
    14  C    2.833562   3.387613   3.914798   2.529881   2.990108
    15  H    3.916378   4.286578   4.998178   3.498448   3.847340
    16  C    2.536519   3.945703   3.495577   1.532583   2.163208
    17  H    3.014770   4.349142   3.857435   2.170960   3.037101
    18  H    3.435774   4.921838   4.338400   2.159676   2.361562
    19  C    3.246031   4.477815   3.146301   3.361110   4.350382
    20  H    3.608183   5.133116   3.674355   3.244934   4.189262
    21  C    3.892498   5.011493   3.368295   4.238722   5.063827
    22  H    4.671670   5.989439   4.108954   4.786064   5.509322
    23  C    3.369756   3.244934   3.269811   4.325434   5.292689
    24  H    3.220859   2.489860   3.312107   4.341617   5.243351
    25  H    4.435431   4.189262   4.357918   5.292689   6.302764
    26  C    3.584701   3.554624   3.012978   4.694184   5.496584
    27  H    4.565905   4.165029   3.980377   5.752217   6.533219
    28  H    3.030538   2.877131   2.325139   4.319734   4.965573
                   11         12         13         14         15
    11  H    0.000000
    12  C    3.833803   0.000000
    13  H    4.915835   1.083479   0.000000
    14  C    3.436703   1.331810   2.098201   0.000000
    15  H    4.348831   2.098921   2.425003   1.083892   0.000000
    16  C    2.164677   2.476428   3.466835   1.504529   2.230305
    17  H    2.377282   3.029412   3.965143   2.121343   2.678647
    18  H    2.619716   3.306375   4.199355   2.141728   2.469485
    19  C    2.792325   4.763697   5.675799   4.713478   5.592383
    20  H    2.489860   5.011493   5.989439   4.668029   5.454511
    21  C    3.573345   5.793614   6.678931   5.924630   6.879645
    22  H    3.939224   6.678931   7.615650   6.684952   7.620395
    23  C    4.341617   4.238722   4.786064   4.800663   5.662822
    24  H    4.622523   3.573345   3.939224   4.354871   5.169480
    25  H    5.243351   5.063827   5.509322   5.568990   6.325535
    26  C    4.585577   5.067521   5.657703   5.732177   6.708742
    27  H    5.676130   5.852212   6.305711   6.625895   7.566449
    28  H    4.364730   4.650175   5.224479   5.441541   6.464931
                   16         17         18         19         20
    16  C    0.000000
    17  H    1.096968   0.000000
    18  H    1.091711   1.742937   0.000000
    19  C    3.849700   3.282035   4.658717   0.000000
    20  H    3.554624   2.877131   4.165029   1.083440   0.000000
    21  C    5.067521   4.650174   5.852212   1.463012   2.200536
    22  H    5.657703   5.224478   6.305711   2.198771   2.510005
    23  C    4.694184   4.319733   5.752217   2.471410   3.464035
    24  H    4.585577   4.364729   5.676130   3.307115   4.202249
    25  H    5.496584   4.965572   6.533219   2.997804   3.935346
    26  C    5.482606   5.276800   6.498859   2.873940   3.945703
    27  H    6.498859   6.275201   7.536247   3.839804   4.921838
    28  H    5.276801   5.294993   6.275202   3.361094   4.349142
                   21         22         23         24         25
    21  C    0.000000
    22  H    1.083479   0.000000
    23  C    2.858480   3.930311   0.000000
    24  H    3.833803   4.915835   1.090372   0.000000
    25  H    3.317085   4.302191   1.097522   1.747440   0.000000
    26  C    2.476428   3.466835   1.532583   2.164677   2.163208
    27  H    3.306375   4.199355   2.159676   2.619716   2.361562
    28  H    3.029412   3.965143   2.170961   2.377282   3.037101
                   26         27         28
    26  C    0.000000
    27  H    1.091711   0.000000
    28  H    1.096968   1.742936   0.000000
 Symmetry turned off by external request.
 Stoichiometry    C12H16
 Framework group  CI[X(C12H16)]
 Deg. of freedom    39
 Full point group                 CI      NOp   2
 Rotational constants (GHZ):           1.7589074           0.5941991           0.5360154
 Leave Link  202 at Tue Aug  4 01:59:52 2020, MaxMem=  6442450944 cpu:               0.3 elap:               0.0
 (Enter /scratch/scicomp/CentOS/7.3.1611/Haswell/software/Gaussian/g16/l301.exe)
 Standard basis: def2TZVP (6D, 10F)
 Ernie: Thresh=  0.10000D-02 Tol=  0.10000D-05 Strict=F.
   528 basis functions,   740 primitive gaussians,   528 cartesian basis functions
    44 alpha electrons       44 beta electrons
       nuclear repulsion energy       676.2098860829 Hartrees.
 IExCor= 4639 DFT=T Ex+Corr=wB97XD ExCW=0 ScaHFX=  1.000000
 ScaDFX=  1.000000  1.000000  1.000000  1.000000 ScalE2=  1.000000  1.000000
 IRadAn=      5 IRanWt=     -1 IRanGd=            0 ICorTp=0 IEmpDi=121
 HFx  wShort=  0.000000 wLong=  0.200000 cFull=  0.222036 cShort=  0.000000 cLong=  0.777964
 DFx  wShort=  0.000000 wLong=  0.200000 cFull=  0.000000 cShort=  0.000000 cLong=  1.000000
 NAtoms=   28 NActive=   28 NUniq=   28 SFac= 1.00D+00 NAtFMM=   60 NAOKFM=F Big=F
 Integral buffers will be    131072 words long.
 Raffenetti 2 integral format.
 Two-electron integral symmetry is turned off.
 R6Disp:  Grimme-D2 Dispersion energy=       -0.0221783464 Hartrees.
 Nuclear repulsion after empirical dispersion term =      676.1877077365 Hartrees.
 Using the following non-standard input for PCM:
 qrep pcmdoc geomview  nodis nocav g03defaults tsare=0.075
 Warning! Using old PCM defaults because the g03defaults keyword was found.
 These settings can be overridden by following keywords.
 nsfe=28
 NVESolv=36  SolvMW=84.1595   Rsolv=2.815
 eps=2.0165 RhoS=0.778099999999998
 --- end of non-standard input.
 Reading user-defined spheres from input:
 ISph  on   Nord    Re0     Alpha      Xe            Ye            Ze
 --- end of user-defined spheres data.
 ------------------------------------------------------------------------------
 Polarizable Continuum Model (PCM)
 =================================
 Model                : PCM.
 Atomic radii         : UA0 (Simple United Atom Topological Model).
 Polarization charges : Total charges.
 Charge compensation  : None.
 Solution method      : On-the-fly selection.
 Cavity type          : SES (Solvent Excluding Surface) (Alpha=1.000).
 Cavity algorithm     : GePol (RMin=0.200 OFac=0.890).
                        User-defined sphere list used, NSphG=   28.
                        Tesserae with average area of 0.075 Ang**2.
                        Smoothing algorithm: None.
                        Polarization charges: point-like.
                        Self-potential: constant (ISelfS= 1).
                        Self-field    : global E.n sum rule (ISelfD= 3).
 Solvent              : CycloHexane, Eps=   2.016500 Eps(inf)=   2.035188
                        RSolv=   2.815000 Ang.
 ------------------------------------------------------------------------------
 GePol: Number of generator spheres                  =      28
 GePol: Total number of spheres                      =     192
 GePol: Number of exposed spheres                    =     136 ( 70.83%)
 GePol: Number of tesserae                           =    4681
 GePol: Average area of tesserae                     =       0.05 Ang**2
 GePol: Minimum area of tessera                      =   0.10D-02 Ang**2
 GePol: Maximum area of tessera                      =    0.12395 Ang**2
 GePol: Number of small tesserae                     =       0
 GePol: Fraction of small tesserae (<1% of avg)      =       0.00%
 GePol: Total count of vertices                      =   16628
 GePol: Maximum number of vertices in a tessera      =       8
 GePol: Cavity surface area                          =    222.213 Ang**2
 GePol: Cavity volume                                =    253.244 Ang**3
 Leave Link  301 at Tue Aug  4 01:59:53 2020, MaxMem=  6442450944 cpu:               8.4 elap:               0.4
 (Enter /scratch/scicomp/CentOS/7.3.1611/Haswell/software/Gaussian/g16/l302.exe)
 NPDir=0 NMtPBC=     1 NCelOv=     1 NCel=       1 NClECP=     1 NCelD=      1
         NCelK=      1 NCelE2=     1 NClLst=     1 CellRange=     0.0.
 One-electron integrals computed using PRISM.
   1 Symmetry operations used in ECPInt.
 ECPInt:  NShTT=   19306 NPrTT=   56928 LenC2=   18474 LenP2D=   41916.
 LDataN:  DoStor=T MaxTD1= 6 Len=  172
 NBasis=   528 RedAO= T EigKep=  1.86D-05  NBF=   528
 NBsUse=   528 1.00D-06 EigRej= -1.00D+00 NBFU=   528
 Precomputing XC quadrature grid using
 IXCGrd= 4 IRadAn=           5 IRanWt=          -1 IRanGd=           0 AccXCQ= 0.00D+00.
 Generated NRdTot=       0 NPtTot=           0 NUsed=           0 NTot=          32
 NSgBfM=   526   525   525   526   526 MxSgAt=    28 MxSgA2=    28.
 Leave Link  302 at Tue Aug  4 01:59:53 2020, MaxMem=  6442450944 cpu:              12.8 elap:               0.6
 (Enter /scratch/scicomp/CentOS/7.3.1611/Haswell/software/Gaussian/g16/l303.exe)
 DipDrv:  MaxL=1.
 Leave Link  303 at Tue Aug  4 01:59:54 2020, MaxMem=  6442450944 cpu:               1.5 elap:               0.1
 (Enter /scratch/scicomp/CentOS/7.3.1611/Haswell/software/Gaussian/g16/l401.exe)
 ExpMin= 9.52D-02 ExpMax= 1.36D+04 ExpMxC= 4.63D+02 IAcc=3 IRadAn=         5 AccDes= 0.00D+00
 Harris functional with IExCor= 4639 and IRadAn=       5 diagonalized for initial guess.
 HarFok:  IExCor= 4639 AccDes= 0.00D+00 IRadAn=         5 IDoV= 1 UseB2=F ITyADJ=14
 ICtDFT=  3500011 ScaDFX=  1.000000  1.000000  1.000000  1.000000
 FoFCou: FMM=F IPFlag=           0 FMFlag=      100000 FMFlg1=           0
         NFxFlg=           0 DoJE=T BraDBF=F KetDBF=T FulRan=T
         wScrn=  0.000000 ICntrl=       500 IOpCl=  0 I1Cent=   200000004 NGrid=           0
         NMat0=    1 NMatS0=      1 NMatT0=    0 NMatD0=    1 NMtDS0=    0 NMtDT0=    0
 Symmetry not used in FoFCou.
 Harris En= -444.656689593853    
 JPrj=0 DoOrth=F DoCkMO=T.
 Mixing orbitals, IMix= 1 IMixAn=  0 NRI=1 NE=   44 Coef=  7.07106781D-01  7.07106781D-01
 Mixing orbitals, IMix= 1 IMixAn=  0 NRI=1 NE=   44 Coef= -7.07106781D-01  7.07106781D-01
 Initial guess <Sx>= 0.0000 <Sy>= 0.0000 <Sz>= 0.0000 <S**2>= 1.0000 S= 0.6180
 Leave Link  401 at Tue Aug  4 01:59:56 2020, MaxMem=  6442450944 cpu:              48.8 elap:               2.1
 (Enter /scratch/scicomp/CentOS/7.3.1611/Haswell/software/Gaussian/g16/l502.exe)
 Two-electron integral symmetry not used.
 UHF open shell SCF:
 Using DIIS extrapolation, IDIIS=  1040.
 NGot=  6442450944 LenX=  6441877030 LenY=  6441597718
 Requested convergence on RMS density matrix=1.00D-08 within 128 cycles.
 Requested convergence on MAX density matrix=1.00D-06.
 Requested convergence on             energy=1.00D-06.
 No special actions if energy rises.
 Fock matrices will be formed incrementally for  20 cycles.

 Cycle   1  Pass 1  IDiag  1:
 FoFJK:  IHMeth= 1 ICntrl=       0 DoSepK=T KAlg= 0 I1Cent=           0 FoldK=F
 IRaf=         1 NMat=       1 IRICut=       1 DoRegI=T DoRafI=F ISym2E= 0 IDoP0=0 IntGTp=1.
 FoFCou: FMM=F IPFlag=           0 FMFlag=      100000 FMFlg1=           0
         NFxFlg=           0 DoJE=T BraDBF=F KetDBF=F FulRan=T
         wScrn=  0.000000 ICntrl=       500 IOpCl=  0 I1Cent=           0 NGrid=           0
         NMat0=    1 NMatS0=      1 NMatT0=    0 NMatD0=    1 NMtDS0=    0 NMtDT0=    0
 Symmetry not used in FoFCou.
 Inv3:  Mode=1 IEnd=    65735283.
 Iteration    1 A*A^-1 deviation from unit magnitude is 3.66D-15 for   2344.
 Iteration    1 A*A^-1 deviation from orthogonality  is 6.58D-15 for   3702   2344.
 Iteration    1 A^-1*A deviation from unit magnitude is 3.77D-15 for    210.
 Iteration    1 A^-1*A deviation from orthogonality  is 2.00D-15 for   3702   2358.
 E= -466.569991047773    
 DIIS: error= 5.17D-02 at cycle   1 NSaved=   1.
 NSaved= 1 IEnMin= 1 EnMin= -466.569991047773     IErMin= 1 ErrMin= 5.17D-02
 ErrMax= 5.17D-02  0.00D+00 EMaxC= 1.00D-01 BMatC= 4.11D+00 BMatP= 4.11D+00
 IDIUse=3 WtCom= 4.83D-01 WtEn= 5.17D-01
 Coeff-Com:  0.100D+01
 Coeff-En:   0.100D+01
 Coeff:      0.100D+01
 Gap=     0.181 Goal=   None    Shift=    0.000
 Gap=     0.181 Goal=   None    Shift=    0.000
 GapD=    0.181 DampG=1.000 DampE=0.500 DampFc=0.5000 IDamp=-1.
 Damping current iteration by 5.00D-01
 RMSDP=1.70D-03 MaxDP=9.29D-02              OVMax= 3.49D-01

 Cycle   2  Pass 1  IDiag  1:
 RMSU=  8.19D-04    CP:  9.64D-01
 E= -466.681491158317     Delta-E=       -0.111500110545 Rises=F Damp=T
 DIIS: error= 2.47D-02 at cycle   2 NSaved=   2.
 NSaved= 2 IEnMin= 2 EnMin= -466.681491158317     IErMin= 2 ErrMin= 2.47D-02
 ErrMax= 2.47D-02  0.00D+00 EMaxC= 1.00D-01 BMatC= 9.36D-01 BMatP= 4.11D+00
 IDIUse=3 WtCom= 7.53D-01 WtEn= 2.47D-01
 Coeff-Com: -0.869D+00 0.187D+01
 Coeff-En:   0.000D+00 0.100D+01
 Coeff:     -0.655D+00 0.165D+01
 Gap=     0.278 Goal=   None    Shift=    0.000
 Gap=     0.278 Goal=   None    Shift=    0.000
 RMSDP=1.21D-03 MaxDP=5.05D-02 DE=-1.12D-01 OVMax= 1.39D-01

 Cycle   3  Pass 1  IDiag  1:
 RMSU=  5.97D-04    CP:  9.10D-01  2.22D+00
 E= -466.827418584632     Delta-E=       -0.145927426314 Rises=F Damp=F
 DIIS: error= 7.82D-03 at cycle   3 NSaved=   3.
 NSaved= 3 IEnMin= 3 EnMin= -466.827418584632     IErMin= 3 ErrMin= 7.82D-03
 ErrMax= 7.82D-03  0.00D+00 EMaxC= 1.00D-01 BMatC= 2.36D-02 BMatP= 9.36D-01
 IDIUse=3 WtCom= 9.22D-01 WtEn= 7.82D-02
 Coeff-Com: -0.315D+00 0.674D+00 0.640D+00
 Coeff-En:   0.000D+00 0.000D+00 0.100D+01
 Coeff:     -0.290D+00 0.621D+00 0.669D+00
 Gap=     0.300 Goal=   None    Shift=    0.000
 Gap=     0.300 Goal=   None    Shift=    0.000
 RMSDP=2.21D-04 MaxDP=1.12D-02 DE=-1.46D-01 OVMax= 6.50D-02

 Cycle   4  Pass 1  IDiag  1:
 RMSU=  2.04D-04    CP:  9.03D-01  2.31D+00  1.01D+00
 E= -466.838167786106     Delta-E=       -0.010749201474 Rises=F Damp=F
 DIIS: error= 5.16D-03 at cycle   4 NSaved=   4.
 NSaved= 4 IEnMin= 4 EnMin= -466.838167786106     IErMin= 4 ErrMin= 5.16D-03
 ErrMax= 5.16D-03  0.00D+00 EMaxC= 1.00D-01 BMatC= 2.09D-03 BMatP= 2.36D-02
 IDIUse=3 WtCom= 9.48D-01 WtEn= 5.16D-02
 Coeff-Com:  0.145D+00-0.310D+00-0.719D-01 0.124D+01
 Coeff-En:   0.000D+00 0.000D+00 0.000D+00 0.100D+01
 Coeff:      0.137D+00-0.294D+00-0.682D-01 0.122D+01
 Gap=     0.311 Goal=   None    Shift=    0.000
 Gap=     0.311 Goal=   None    Shift=    0.000
 RMSDP=2.21D-04 MaxDP=1.29D-02 DE=-1.07D-02 OVMax= 7.82D-02

 Cycle   5  Pass 1  IDiag  1:
 RMSU=  8.89D-05    CP:  8.96D-01  2.36D+00  1.24D+00  1.65D+00
 E= -466.842914839849     Delta-E=       -0.004747053743 Rises=F Damp=F
 DIIS: error= 2.35D-03 at cycle   5 NSaved=   5.
 NSaved= 5 IEnMin= 5 EnMin= -466.842914839849     IErMin= 5 ErrMin= 2.35D-03
 ErrMax= 2.35D-03  0.00D+00 EMaxC= 1.00D-01 BMatC= 8.69D-04 BMatP= 2.09D-03
 IDIUse=3 WtCom= 9.76D-01 WtEn= 2.35D-02
 Coeff-Com:  0.679D-01-0.146D+00-0.730D-01 0.386D+00 0.765D+00
 Coeff-En:   0.000D+00 0.000D+00 0.000D+00 0.000D+00 0.100D+01
 Coeff:      0.663D-01-0.142D+00-0.713D-01 0.377D+00 0.770D+00
 Gap=     0.313 Goal=   None    Shift=    0.000
 Gap=     0.313 Goal=   None    Shift=    0.000
 RMSDP=7.81D-05 MaxDP=3.41D-03 DE=-4.75D-03 OVMax= 2.79D-02

 Cycle   6  Pass 1  IDiag  1:
 RMSU=  3.23D-05    CP:  8.95D-01  2.37D+00  1.28D+00  1.93D+00  1.39D+00
 E= -466.844269947871     Delta-E=       -0.001355108021 Rises=F Damp=F
 DIIS: error= 1.73D-03 at cycle   6 NSaved=   6.
 NSaved= 6 IEnMin= 6 EnMin= -466.844269947871     IErMin= 6 ErrMin= 1.73D-03
 ErrMax= 1.73D-03  0.00D+00 EMaxC= 1.00D-01 BMatC= 5.29D-04 BMatP= 8.69D-04
 IDIUse=3 WtCom= 9.83D-01 WtEn= 1.73D-02
 Coeff-Com: -0.802D-01 0.172D+00 0.572D-01-0.590D+00 0.480D-01 0.139D+01
 Coeff-En:   0.000D+00 0.000D+00 0.000D+00 0.000D+00 0.000D+00 0.100D+01
 Coeff:     -0.788D-01 0.169D+00 0.562D-01-0.580D+00 0.472D-01 0.139D+01
 Gap=     0.310 Goal=   None    Shift=    0.000
 Gap=     0.310 Goal=   None    Shift=    0.000
 RMSDP=1.04D-04 MaxDP=4.11D-03 DE=-1.36D-03 OVMax= 3.82D-02

 Cycle   7  Pass 1  IDiag  1:
 RMSU=  3.16D-05    CP:  8.93D-01  2.36D+00  1.32D+00  2.22D+00  2.09D+00
                    CP:  2.23D+00
 E= -466.845905844761     Delta-E=       -0.001635896891 Rises=F Damp=F
 DIIS: error= 1.11D-03 at cycle   7 NSaved=   7.
 NSaved= 7 IEnMin= 7 EnMin= -466.845905844761     IErMin= 7 ErrMin= 1.11D-03
 ErrMax= 1.11D-03  0.00D+00 EMaxC= 1.00D-01 BMatC= 2.72D-04 BMatP= 5.29D-04
 IDIUse=3 WtCom= 9.89D-01 WtEn= 1.11D-02
 Coeff-Com: -0.243D-01 0.527D-01 0.421D-01 0.606D-02-0.685D+00-0.579D+00
 Coeff-Com:  0.219D+01
 Coeff-En:   0.000D+00 0.000D+00 0.000D+00 0.000D+00 0.000D+00 0.000D+00
 Coeff-En:   0.100D+01
 Coeff:     -0.240D-01 0.521D-01 0.416D-01 0.599D-02-0.677D+00-0.573D+00
 Coeff:      0.217D+01
 Gap=     0.309 Goal=   None    Shift=    0.000
 Gap=     0.309 Goal=   None    Shift=    0.000
 RMSDP=1.44D-04 MaxDP=6.77D-03 DE=-1.64D-03 OVMax= 5.31D-02

 Cycle   8  Pass 1  IDiag  1:
 RMSU=  5.36D-05    CP:  8.90D-01  2.36D+00  1.36D+00  2.55D+00  2.99D+00
                    CP:  3.00D+00  2.72D+00
 E= -466.847363453990     Delta-E=       -0.001457609228 Rises=F Damp=F
 DIIS: error= 3.95D-04 at cycle   8 NSaved=   8.
 NSaved= 8 IEnMin= 8 EnMin= -466.847363453990     IErMin= 8 ErrMin= 3.95D-04
 ErrMax= 3.95D-04  0.00D+00 EMaxC= 1.00D-01 BMatC= 6.82D-05 BMatP= 2.72D-04
 IDIUse=3 WtCom= 9.96D-01 WtEn= 3.95D-03
 Coeff-Com:  0.261D-01-0.560D-01-0.801D-02 0.275D+00-0.223D+00-0.785D+00
 Coeff-Com:  0.651D+00 0.112D+01
 Coeff-En:   0.000D+00 0.000D+00 0.000D+00 0.000D+00 0.000D+00 0.000D+00
 Coeff-En:   0.000D+00 0.100D+01
 Coeff:      0.260D-01-0.558D-01-0.798D-02 0.274D+00-0.222D+00-0.782D+00
 Coeff:      0.649D+00 0.112D+01
 Gap=     0.311 Goal=   None    Shift=    0.000
 Gap=     0.311 Goal=   None    Shift=    0.000
 RMSDP=6.84D-05 MaxDP=3.36D-03 DE=-1.46D-03 OVMax= 2.53D-02

 Cycle   9  Pass 1  IDiag  1:
 RMSU=  4.25D-05    CP:  8.89D-01  2.36D+00  1.38D+00  2.67D+00  3.00D+00
                    CP:  3.00D+00  3.00D+00  1.75D+00
 E= -466.847636668972     Delta-E=       -0.000273214983 Rises=F Damp=F
 DIIS: error= 1.30D-04 at cycle   9 NSaved=   9.
 NSaved= 9 IEnMin= 9 EnMin= -466.847636668972     IErMin= 9 ErrMin= 1.30D-04
 ErrMax= 1.30D-04  0.00D+00 EMaxC= 1.00D-01 BMatC= 1.17D-05 BMatP= 6.82D-05
 IDIUse=3 WtCom= 9.99D-01 WtEn= 1.30D-03
 Coeff-Com:  0.146D-01-0.314D-01-0.982D-02 0.107D+00 0.275D-01-0.204D+00
 Coeff-Com: -0.110D+00 0.363D+00 0.843D+00
 Coeff-En:   0.000D+00 0.000D+00 0.000D+00 0.000D+00 0.000D+00 0.000D+00
 Coeff-En:   0.000D+00 0.000D+00 0.100D+01
 Coeff:      0.146D-01-0.314D-01-0.980D-02 0.107D+00 0.274D-01-0.204D+00
 Coeff:     -0.109D+00 0.362D+00 0.843D+00
 Gap=     0.311 Goal=   None    Shift=    0.000
 Gap=     0.311 Goal=   None    Shift=    0.000
 RMSDP=1.71D-05 MaxDP=8.49D-04 DE=-2.73D-04 OVMax= 6.37D-03

 Cycle  10  Pass 1  IDiag  1:
 RMSU=  6.82D-06    CP:  8.89D-01  2.36D+00  1.39D+00  2.69D+00  3.00D+00
                    CP:  3.00D+00  3.00D+00  1.93D+00  1.26D+00
 E= -466.847658779072     Delta-E=       -0.000022110100 Rises=F Damp=F
 DIIS: error= 5.93D-05 at cycle  10 NSaved=  10.
 NSaved=10 IEnMin=10 EnMin= -466.847658779072     IErMin=10 ErrMin= 5.93D-05
 ErrMax= 5.93D-05  0.00D+00 EMaxC= 1.00D-01 BMatC= 1.87D-06 BMatP= 1.17D-05
 IDIUse=1 WtCom= 1.00D+00 WtEn= 0.00D+00
 Coeff-Com: -0.126D-02 0.273D-02-0.750D-03-0.271D-01 0.422D-01 0.948D-01
 Coeff-Com: -0.126D+00-0.172D+00 0.160D+00 0.103D+01
 Coeff:     -0.126D-02 0.273D-02-0.750D-03-0.271D-01 0.422D-01 0.948D-01
 Coeff:     -0.126D+00-0.172D+00 0.160D+00 0.103D+01
 Gap=     0.310 Goal=   None    Shift=    0.000
 Gap=     0.310 Goal=   None    Shift=    0.000
 RMSDP=8.55D-06 MaxDP=3.88D-04 DE=-2.21D-05 OVMax= 3.11D-03

 Cycle  11  Pass 1  IDiag  1:
 RMSU=  2.88D-06    CP:  8.89D-01  2.36D+00  1.39D+00  2.70D+00  3.00D+00
                    CP:  3.00D+00  3.00D+00  2.00D+00  1.37D+00  1.59D+00
 E= -466.847662142908     Delta-E=       -0.000003363836 Rises=F Damp=F
 DIIS: error= 2.36D-05 at cycle  11 NSaved=  11.
 NSaved=11 IEnMin=11 EnMin= -466.847662142908     IErMin=11 ErrMin= 2.36D-05
 ErrMax= 2.36D-05  0.00D+00 EMaxC= 1.00D-01 BMatC= 4.32D-07 BMatP= 1.87D-06
 IDIUse=1 WtCom= 1.00D+00 WtEn= 0.00D+00
 Coeff-Com: -0.165D-02 0.357D-02 0.510D-03-0.189D-01 0.123D-01 0.497D-01
 Coeff-Com: -0.307D-01-0.992D-01-0.274D-01 0.408D+00 0.704D+00
 Coeff:     -0.165D-02 0.357D-02 0.510D-03-0.189D-01 0.123D-01 0.497D-01
 Coeff:     -0.307D-01-0.992D-01-0.274D-01 0.408D+00 0.704D+00
 Gap=     0.310 Goal=   None    Shift=    0.000
 Gap=     0.310 Goal=   None    Shift=    0.000
 RMSDP=1.50D-06 MaxDP=7.65D-05 DE=-3.36D-06 OVMax= 4.57D-04

 Cycle  12  Pass 1  IDiag  1:
 RMSU=  8.29D-07    CP:  8.89D-01  2.36D+00  1.39D+00  2.70D+00  3.00D+00
                    CP:  3.00D+00  3.00D+00  2.00D+00  1.39D+00  1.66D+00
                    CP:  1.17D+00
 E= -466.847662388253     Delta-E=       -0.000000245345 Rises=F Damp=F
 DIIS: error= 1.30D-05 at cycle  12 NSaved=  12.
 NSaved=12 IEnMin=12 EnMin= -466.847662388253     IErMin=12 ErrMin= 1.30D-05
 ErrMax= 1.30D-05  0.00D+00 EMaxC= 1.00D-01 BMatC= 6.61D-08 BMatP= 4.32D-07
 IDIUse=1 WtCom= 1.00D+00 WtEn= 0.00D+00
 Coeff-Com:  0.345D-03-0.751D-03-0.359D-04 0.529D-02-0.534D-02-0.173D-01
 Coeff-Com:  0.195D-01 0.301D-01-0.232D-01-0.179D+00 0.648D-01 0.111D+01
 Coeff:      0.345D-03-0.751D-03-0.359D-04 0.529D-02-0.534D-02-0.173D-01
 Coeff:      0.195D-01 0.301D-01-0.232D-01-0.179D+00 0.648D-01 0.111D+01
 Gap=     0.310 Goal=   None    Shift=    0.000
 Gap=     0.310 Goal=   None    Shift=    0.000
 RMSDP=7.62D-07 MaxDP=2.70D-05 DE=-2.45D-07 OVMax= 1.32D-04

 Cycle  13  Pass 1  IDiag  1:
 RMSU=  4.87D-07    CP:  8.89D-01  2.36D+00  1.39D+00  2.70D+00  3.00D+00
                    CP:  3.00D+00  3.00D+00  2.00D+00  1.39D+00  1.65D+00
                    CP:  1.27D+00  1.55D+00
 E= -466.847662474176     Delta-E=       -0.000000085923 Rises=F Damp=F
 DIIS: error= 7.27D-06 at cycle  13 NSaved=  13.
 NSaved=13 IEnMin=13 EnMin= -466.847662474176     IErMin=13 ErrMin= 7.27D-06
 ErrMax= 7.27D-06  0.00D+00 EMaxC= 1.00D-01 BMatC= 1.66D-08 BMatP= 6.61D-08
 IDIUse=1 WtCom= 1.00D+00 WtEn= 0.00D+00
 Coeff-Com: -0.826D-04 0.181D-03 0.796D-04-0.616D-03 0.190D-03 0.168D-02
 Coeff-Com: -0.165D-02-0.286D-03 0.398D-02-0.534D-02-0.123D+00-0.298D+00
 Coeff-Com:  0.142D+01
 Coeff:     -0.826D-04 0.181D-03 0.796D-04-0.616D-03 0.190D-03 0.168D-02
 Coeff:     -0.165D-02-0.286D-03 0.398D-02-0.534D-02-0.123D+00-0.298D+00
 Coeff:      0.142D+01
 Gap=     0.310 Goal=   None    Shift=    0.000
 Gap=     0.310 Goal=   None    Shift=    0.000
 RMSDP=4.34D-07 MaxDP=2.38D-05 DE=-8.59D-08 OVMax= 1.03D-04

 Cycle  14  Pass 1  IDiag  1:
 RMSU=  2.88D-07    CP:  8.89D-01  2.36D+00  1.39D+00  2.70D+00  3.00D+00
                    CP:  3.00D+00  3.00D+00  2.00D+00  1.39D+00  1.66D+00
                    CP:  1.30D+00  1.76D+00  1.51D+00
 E= -466.847662510324     Delta-E=       -0.000000036148 Rises=F Damp=F
 DIIS: error= 3.84D-06 at cycle  14 NSaved=  14.
 NSaved=14 IEnMin=14 EnMin= -466.847662510324     IErMin=14 ErrMin= 3.84D-06
 ErrMax= 3.84D-06  0.00D+00 EMaxC= 1.00D-01 BMatC= 5.01D-09 BMatP= 1.66D-08
 IDIUse=1 WtCom= 1.00D+00 WtEn= 0.00D+00
 Coeff-Com: -0.150D-03 0.324D-03 0.775D-04-0.167D-02 0.118D-02 0.499D-02
 Coeff-Com: -0.513D-02-0.798D-02 0.686D-02 0.494D-01-0.362D-01-0.350D+00
 Coeff-Com:  0.133D+00 0.120D+01
 Coeff:     -0.150D-03 0.324D-03 0.775D-04-0.167D-02 0.118D-02 0.499D-02
 Coeff:     -0.513D-02-0.798D-02 0.686D-02 0.494D-01-0.362D-01-0.350D+00
 Coeff:      0.133D+00 0.120D+01
 Gap=     0.310 Goal=   None    Shift=    0.000
 Gap=     0.310 Goal=   None    Shift=    0.000
 RMSDP=2.87D-07 MaxDP=1.25D-05 DE=-3.61D-08 OVMax= 6.68D-05

 Cycle  15  Pass 1  IDiag  1:
 RMSU=  1.12D-07    CP:  8.89D-01  2.36D+00  1.39D+00  2.70D+00  3.00D+00
                    CP:  3.00D+00  3.00D+00  2.00D+00  1.39D+00  1.66D+00
                    CP:  1.30D+00  1.82D+00  1.79D+00  1.74D+00
 E= -466.847662521165     Delta-E=       -0.000000010841 Rises=F Damp=F
 DIIS: error= 1.52D-06 at cycle  15 NSaved=  15.
 NSaved=15 IEnMin=15 EnMin= -466.847662521165     IErMin=15 ErrMin= 1.52D-06
 ErrMax= 1.52D-06  0.00D+00 EMaxC= 1.00D-01 BMatC= 9.36D-10 BMatP= 5.01D-09
 IDIUse=1 WtCom= 1.00D+00 WtEn= 0.00D+00
 Coeff-Com:  0.318D-04-0.693D-04-0.341D-04 0.222D-03 0.441D-04-0.404D-03
 Coeff-Com: -0.289D-03 0.457D-03 0.120D-02 0.520D-02 0.256D-01 0.386D-01
 Coeff-Com: -0.381D+00 0.148D+00 0.116D+01
 Coeff:      0.318D-04-0.693D-04-0.341D-04 0.222D-03 0.441D-04-0.404D-03
 Coeff:     -0.289D-03 0.457D-03 0.120D-02 0.520D-02 0.256D-01 0.386D-01
 Coeff:     -0.381D+00 0.148D+00 0.116D+01
 Gap=     0.310 Goal=   None    Shift=    0.000
 Gap=     0.310 Goal=   None    Shift=    0.000
 RMSDP=1.64D-07 MaxDP=6.37D-06 DE=-1.08D-08 OVMax= 3.52D-05

 Cycle  16  Pass 1  IDiag  1:
 RMSU=  5.45D-08    CP:  8.89D-01  2.36D+00  1.39D+00  2.70D+00  3.00D+00
                    CP:  3.00D+00  3.00D+00  2.00D+00  1.39D+00  1.67D+00
                    CP:  1.29D+00  1.82D+00  1.90D+00  2.13D+00  1.62D+00
 E= -466.847662522948     Delta-E=       -0.000000001783 Rises=F Damp=F
 DIIS: error= 3.03D-07 at cycle  16 NSaved=  16.
 NSaved=16 IEnMin=16 EnMin= -466.847662522948     IErMin=16 ErrMin= 3.03D-07
 ErrMax= 3.03D-07  0.00D+00 EMaxC= 1.00D-01 BMatC= 8.87D-11 BMatP= 9.36D-10
 IDIUse=1 WtCom= 1.00D+00 WtEn= 0.00D+00
 Coeff-Com:  0.105D-04-0.227D-04-0.857D-05 0.132D-03-0.799D-04-0.371D-03
 Coeff-Com:  0.286D-03 0.721D-03-0.598D-03-0.365D-02 0.105D-01 0.453D-01
 Coeff-Com: -0.107D+00-0.893D-01 0.286D+00 0.858D+00
 Coeff:      0.105D-04-0.227D-04-0.857D-05 0.132D-03-0.799D-04-0.371D-03
 Coeff:      0.286D-03 0.721D-03-0.598D-03-0.365D-02 0.105D-01 0.453D-01
 Coeff:     -0.107D+00-0.893D-01 0.286D+00 0.858D+00
 Gap=     0.310 Goal=   None    Shift=    0.000
 Gap=     0.310 Goal=   None    Shift=    0.000
 RMSDP=3.60D-08 MaxDP=2.05D-06 DE=-1.78D-09 OVMax= 5.86D-06

 Cycle  17  Pass 1  IDiag  1:
 RMSU=  1.39D-08    CP:  8.89D-01  2.36D+00  1.39D+00  2.70D+00  3.00D+00
                    CP:  3.00D+00  3.00D+00  2.00D+00  1.39D+00  1.67D+00
                    CP:  1.29D+00  1.82D+00  1.90D+00  2.18D+00  1.76D+00
                    CP:  1.29D+00
 E= -466.847662523017     Delta-E=       -0.000000000069 Rises=F Damp=F
 DIIS: error= 7.18D-08 at cycle  17 NSaved=  17.
 NSaved=17 IEnMin=17 EnMin= -466.847662523017     IErMin=17 ErrMin= 7.18D-08
 ErrMax= 7.18D-08  0.00D+00 EMaxC= 1.00D-01 BMatC= 9.21D-12 BMatP= 8.87D-11
 IDIUse=1 WtCom= 1.00D+00 WtEn= 0.00D+00
 Coeff-Com: -0.112D-05 0.249D-05 0.133D-05-0.264D-05-0.200D-04 0.833D-05
 Coeff-Com:  0.452D-04 0.784D-04-0.286D-03-0.128D-02-0.792D-03 0.410D-02
 Coeff-Com:  0.239D-01-0.328D-01-0.850D-01 0.156D+00 0.936D+00
 Coeff:     -0.112D-05 0.249D-05 0.133D-05-0.264D-05-0.200D-04 0.833D-05
 Coeff:      0.452D-04 0.784D-04-0.286D-03-0.128D-02-0.792D-03 0.410D-02
 Coeff:      0.239D-01-0.328D-01-0.850D-01 0.156D+00 0.936D+00
 Gap=     0.310 Goal=   None    Shift=    0.000
 Gap=     0.310 Goal=   None    Shift=    0.000
 RMSDP=1.11D-08 MaxDP=4.10D-07 DE=-6.95D-11 OVMax= 1.76D-06

 Cycle  18  Pass 1  IDiag  1:
 RMSU=  5.85D-09    CP:  8.89D-01  2.36D+00  1.39D+00  2.70D+00  3.00D+00
                    CP:  3.00D+00  3.00D+00  2.00D+00  1.39D+00  1.67D+00
                    CP:  1.29D+00  1.81D+00  1.90D+00  2.18D+00  1.81D+00
                    CP:  1.39D+00  1.21D+00
 E= -466.847662523023     Delta-E=       -0.000000000006 Rises=F Damp=F
 DIIS: error= 2.95D-08 at cycle  18 NSaved=  18.
 NSaved=18 IEnMin=18 EnMin= -466.847662523023     IErMin=18 ErrMin= 2.95D-08
 ErrMax= 2.95D-08  0.00D+00 EMaxC= 1.00D-01 BMatC= 9.16D-13 BMatP= 9.21D-12
 IDIUse=1 WtCom= 1.00D+00 WtEn= 0.00D+00
 Coeff-Com:  0.147D-06-0.320D-06 0.527D-06-0.118D-05-0.806D-05 0.127D-04
 Coeff-Com: -0.669D-06-0.179D-04 0.248D-04 0.789D-04-0.108D-02-0.359D-02
 Coeff-Com:  0.133D-01 0.388D-02-0.384D-01-0.676D-01 0.128D+00 0.966D+00
 Coeff:      0.147D-06-0.320D-06 0.527D-06-0.118D-05-0.806D-05 0.127D-04
 Coeff:     -0.669D-06-0.179D-04 0.248D-04 0.789D-04-0.108D-02-0.359D-02
 Coeff:      0.133D-01 0.388D-02-0.384D-01-0.676D-01 0.128D+00 0.966D+00
 Gap=     0.310 Goal=   None    Shift=    0.000
 Gap=     0.310 Goal=   None    Shift=    0.000
 RMSDP=3.51D-09 MaxDP=1.65D-07 DE=-6.25D-12 OVMax= 4.06D-07

 Error on total polarization charges =  0.01120
 SCF Done:  E(UwB97XD) =  -466.847662523     A.U. after   18 cycles
            NFock= 18  Conv=0.35D-08     -V/T= 2.0057
 <Sx>= 0.0000 <Sy>= 0.0000 <Sz>= 0.0000 <S**2>= 0.0000 S= 0.0000
 <L.S>=  0.00000000000    
 KE= 4.642070381575D+02 PE=-2.434318051139D+03 EE= 8.270756427219D+02
 --------------------------------------------------------------------
 Variational PCM results
 =======================
 <psi(f)|   H    |psi(f)>                     (a.u.) =    -466.855211
 <psi(f)|H+V(f)/2|psi(f)>                     (a.u.) =    -466.856740
 Total free energy in solution:
 - with all non electrostatic terms           (a.u.) =    -466.847663
 --------------------------------------------------------------------
 (Polarized solute)-Solvent               (kcal/mol) =      -0.96
 --------------------------------------------------------------------
 Quantum repulsion energy                 (kcal/mol) =       5.70
 Total non electrostatic                  (kcal/mol) =       5.70
 --------------------------------------------------------------------
 Partition over spheres:
 Sphere  on Atom  Surface  Charge   GEl     GCav    GDR
    1               7.15   0.010   -0.05    0.00    0.00
    2               4.06   0.006   -0.04    0.00    0.00
    3               7.52  -0.010   -0.04    0.00    0.00
    4               3.60  -0.005   -0.01    0.00    0.00
    5               4.60   0.009   -0.06    0.00    0.00
    6               4.83   0.007   -0.04    0.00    0.00
    7               4.57  -0.006   -0.03    0.00    0.00
    8               3.85  -0.005   -0.01    0.00    0.00
    9               3.15   0.002    0.00    0.00    0.00
   10               6.92  -0.007   -0.01    0.00    0.00
   11               2.65  -0.002   -0.01    0.00    0.00
   12               6.37   0.010   -0.06    0.00    0.00
   13               7.52  -0.010   -0.03    0.00    0.00
   14               7.30   0.011   -0.05    0.00    0.00
   15               7.52  -0.010   -0.04    0.00    0.00
   16               3.74   0.002    0.00    0.00    0.00
   17               3.21  -0.003   -0.01    0.00    0.00
   18               6.96  -0.008   -0.03    0.00    0.00
   19               4.99   0.009   -0.06    0.00    0.00
   20               4.64  -0.007   -0.03    0.00    0.00
   21               6.23   0.010   -0.06    0.00    0.00
   22               7.51  -0.010   -0.03    0.00    0.00
   23               3.64   0.002    0.00    0.00    0.00
   24               4.00  -0.003   -0.01    0.00    0.00
   25               6.91  -0.007   -0.01    0.00    0.00
   26               3.27   0.001    0.00    0.00    0.00
   27               6.96  -0.008   -0.03    0.00    0.00
   28               3.26  -0.003   -0.01    0.00    0.00
 Added spheres:    75.31   0.014   -0.22    0.00    0.00
 --------------------------------------------------------------------
 After PCM corrections, the energy is  -466.847662523     a.u.
 --------------------------------------------------------------------
 Annihilation of the first spin contaminant:
 S**2 before annihilation     0.0000,   after    -0.0000
 Leave Link  502 at Tue Aug  4 02:05:35 2020, MaxMem=  6442450944 cpu:            8066.4 elap:             339.3
 (Enter /scratch/scicomp/CentOS/7.3.1611/Haswell/software/Gaussian/g16/l601.exe)
 Copying SCF densities to generalized density rwf, IOpCl= 1 IROHF=0.

 **********************************************************************

            Population analysis using the SCF Density.

 **********************************************************************

 Alpha  occ. eigenvalues --  -10.28349 -10.28349 -10.28109 -10.28108 -10.28086
 Alpha  occ. eigenvalues --  -10.28084 -10.28012 -10.28010 -10.27801 -10.27799
 Alpha  occ. eigenvalues --  -10.27387 -10.27385  -0.94066  -0.93460  -0.84167
 Alpha  occ. eigenvalues --   -0.84054  -0.83681  -0.83570  -0.71341  -0.71069
 Alpha  occ. eigenvalues --   -0.67892  -0.67801  -0.59645  -0.59501  -0.57278
 Alpha  occ. eigenvalues --   -0.56548  -0.53528  -0.52675  -0.50843  -0.50805
 Alpha  occ. eigenvalues --   -0.49763  -0.49262  -0.47262  -0.46776  -0.45130
 Alpha  occ. eigenvalues --   -0.44925  -0.41184  -0.40883  -0.39627  -0.39164
 Alpha  occ. eigenvalues --   -0.39101  -0.38833  -0.29692  -0.27391
 Alpha virt. eigenvalues --    0.03655   0.05218   0.11376   0.13050   0.14352
 Alpha virt. eigenvalues --    0.15434   0.15502   0.16343   0.16509   0.16922
 Alpha virt. eigenvalues --    0.17583   0.17676   0.18101   0.19182   0.20918
 Alpha virt. eigenvalues --    0.22074   0.22367   0.23661   0.24280   0.24369
 Alpha virt. eigenvalues --    0.25519   0.26308   0.26537   0.27466   0.28687
 Alpha virt. eigenvalues --    0.28963   0.29576   0.29900   0.30795   0.31153
 Alpha virt. eigenvalues --    0.32091   0.32270   0.32810   0.33101   0.34046
 Alpha virt. eigenvalues --    0.34372   0.34789   0.36306   0.36472   0.37847
 Alpha virt. eigenvalues --    0.38443   0.39805   0.40172   0.41848   0.42247
 Alpha virt. eigenvalues --    0.42252   0.44224   0.44746   0.45842   0.46556
 Alpha virt. eigenvalues --    0.47097   0.47379   0.48502   0.48577   0.49159
 Alpha virt. eigenvalues --    0.49310   0.49636   0.49798   0.50351   0.50747
 Alpha virt. eigenvalues --    0.51177   0.51294   0.52414   0.52730   0.53334
 Alpha virt. eigenvalues --    0.53852   0.54758   0.54941   0.55553   0.55887
 Alpha virt. eigenvalues --    0.57637   0.58160   0.58496   0.59357   0.60422
 Alpha virt. eigenvalues --    0.60705   0.61141   0.62876   0.63528   0.65050
 Alpha virt. eigenvalues --    0.66121   0.67301   0.68302   0.68754   0.68997
 Alpha virt. eigenvalues --    0.70570   0.72966   0.73081   0.73923   0.75047
 Alpha virt. eigenvalues --    0.77616   0.78623   0.78703   0.80699   0.80828
 Alpha virt. eigenvalues --    0.81975   0.82678   0.83459   0.87821   0.88238
 Alpha virt. eigenvalues --    0.89281   0.90318   0.90562   0.91928   0.93081
 Alpha virt. eigenvalues --    0.93452   0.95312   0.96743   0.98791   0.99114
 Alpha virt. eigenvalues --    1.01086   1.03964   1.05098   1.05159   1.05219
 Alpha virt. eigenvalues --    1.06846   1.07956   1.08285   1.09106   1.11772
 Alpha virt. eigenvalues --    1.13143   1.13903   1.14340   1.15193   1.16054
 Alpha virt. eigenvalues --    1.16380   1.17200   1.17840   1.19127   1.20665
 Alpha virt. eigenvalues --    1.20852   1.21740   1.24430   1.24626   1.25010
 Alpha virt. eigenvalues --    1.25683   1.26337   1.27516   1.28246   1.28880
 Alpha virt. eigenvalues --    1.29309   1.31250   1.31833   1.32816   1.32912
 Alpha virt. eigenvalues --    1.34310   1.35065   1.37419   1.37600   1.37813
 Alpha virt. eigenvalues --    1.38935   1.39257   1.40844   1.41396   1.41997
 Alpha virt. eigenvalues --    1.43178   1.43694   1.43729   1.44020   1.45241
 Alpha virt. eigenvalues --    1.46134   1.46801   1.47186   1.47942   1.48666
 Alpha virt. eigenvalues --    1.49504   1.51069   1.51926   1.54390   1.56002
 Alpha virt. eigenvalues --    1.57567   1.58261   1.58869   1.59797   1.61394
 Alpha virt. eigenvalues --    1.62015   1.63437   1.63762   1.66013   1.67833
 Alpha virt. eigenvalues --    1.68679   1.70652   1.72766   1.74503   1.78405
 Alpha virt. eigenvalues --    1.78464   1.80740   1.80906   1.83946   1.84453
 Alpha virt. eigenvalues --    1.86818   1.87698   1.90339   1.91327   1.91893
 Alpha virt. eigenvalues --    1.93170   1.97259   1.98524   2.00581   2.01157
 Alpha virt. eigenvalues --    2.03870   2.03883   2.07277   2.08766   2.09027
 Alpha virt. eigenvalues --    2.10104   2.12021   2.12941   2.13930   2.15657
 Alpha virt. eigenvalues --    2.17850   2.20238   2.20668   2.21363   2.22753
 Alpha virt. eigenvalues --    2.23439   2.24944   2.25325   2.27142   2.27269
 Alpha virt. eigenvalues --    2.31485   2.35456   2.37679   2.38913   2.41588
 Alpha virt. eigenvalues --    2.43575   2.45258   2.45734   2.49329   2.50000
 Alpha virt. eigenvalues --    2.50202   2.50836   2.53638   2.54776   2.55454
 Alpha virt. eigenvalues --    2.56150   2.57869   2.58737   2.61265   2.61977
 Alpha virt. eigenvalues --    2.62642   2.64923   2.64951   2.65542   2.66245
 Alpha virt. eigenvalues --    2.66921   2.67889   2.71042   2.72441   2.72927
 Alpha virt. eigenvalues --    2.73361   2.73917   2.74989   2.76008   2.77089
 Alpha virt. eigenvalues --    2.77607   2.78884   2.79856   2.80862   2.81325
 Alpha virt. eigenvalues --    2.81395   2.82929   2.83126   2.84205   2.85334
 Alpha virt. eigenvalues --    2.86298   2.86668   2.87358   2.87842   2.90215
 Alpha virt. eigenvalues --    2.91165   2.91393   2.92694   2.92756   2.94310
 Alpha virt. eigenvalues --    2.95199   2.95723   2.95928   2.96861   3.00882
 Alpha virt. eigenvalues --    3.01441   3.02409   3.03345   3.04907   3.06058
 Alpha virt. eigenvalues --    3.07672   3.09373   3.10009   3.10103   3.10514
 Alpha virt. eigenvalues --    3.11948   3.13205   3.13612   3.14762   3.15398
 Alpha virt. eigenvalues --    3.15602   3.16792   3.17314   3.18804   3.19456
 Alpha virt. eigenvalues --    3.20082   3.20474   3.20765   3.21075   3.21814
 Alpha virt. eigenvalues --    3.22093   3.22984   3.23524   3.24112   3.24495
 Alpha virt. eigenvalues --    3.25952   3.26398   3.26727   3.27000   3.28039
 Alpha virt. eigenvalues --    3.28268   3.30744   3.30800   3.31763   3.31767
 Alpha virt. eigenvalues --    3.32756   3.32805   3.33664   3.34466   3.34490
 Alpha virt. eigenvalues --    3.36065   3.36106   3.36786   3.37884   3.39100
 Alpha virt. eigenvalues --    3.39877   3.42021   3.42985   3.43438   3.44147
 Alpha virt. eigenvalues --    3.45444   3.45633   3.46729   3.47072   3.47257
 Alpha virt. eigenvalues --    3.48361   3.49539   3.50009   3.50877   3.51629
 Alpha virt. eigenvalues --    3.52284   3.53336   3.53675   3.55055   3.55100
 Alpha virt. eigenvalues --    3.57484   3.57666   3.58007   3.60516   3.65179
 Alpha virt. eigenvalues --    3.65443   3.65736   3.66004   3.67817   3.68430
 Alpha virt. eigenvalues --    3.68751   3.69208   3.71942   3.72046   3.73962
 Alpha virt. eigenvalues --    3.76772   3.76855   3.78739   3.80852   3.82531
 Alpha virt. eigenvalues --    3.85229   3.85737   3.85841   3.86654   3.87098
 Alpha virt. eigenvalues --    3.89055   3.91502   3.92222   3.94151   3.95126
 Alpha virt. eigenvalues --    3.97051   3.98295   4.01575   4.01669   4.04110
 Alpha virt. eigenvalues --    4.05889   4.08254   4.09127   4.09175   4.10696
 Alpha virt. eigenvalues --    4.12088   4.13104   4.14669   4.15088   4.18560
 Alpha virt. eigenvalues --    4.18686   4.20470   4.20864   4.23535   4.24889
 Alpha virt. eigenvalues --    4.25509   4.27372   4.30966   4.31147   4.34710
 Alpha virt. eigenvalues --    4.35234   4.38619   4.38635   4.39723   4.42085
 Alpha virt. eigenvalues --    4.43704   4.44446   4.47686   4.49100   4.51670
 Alpha virt. eigenvalues --    4.53438   4.59128   4.61312   4.63980   4.67412
 Alpha virt. eigenvalues --    4.68036   4.69095   4.73378   4.73600   4.76262
 Alpha virt. eigenvalues --    4.77184   4.79701   4.80552   4.83688   4.84736
 Alpha virt. eigenvalues --    4.85471   4.86426   4.91262   4.93849   4.94831
 Alpha virt. eigenvalues --    4.95820   4.97706   4.99805   5.06815   5.07875
 Alpha virt. eigenvalues --    5.13904   5.14965   5.19459   5.20224   5.22797
 Alpha virt. eigenvalues --    5.23449   5.32565   5.32958   5.41376   5.42281
 Alpha virt. eigenvalues --    5.43654   5.44634   5.50179   5.51254   5.69227
 Alpha virt. eigenvalues --    5.71220   5.76402   5.79018   5.94761   6.02205
 Alpha virt. eigenvalues --    7.94161   7.95555   8.01194   8.04826   8.05557
 Alpha virt. eigenvalues --    8.08093   8.09897   8.12263   8.17812   8.18654
 Alpha virt. eigenvalues --    8.35381   8.35938  34.76309  34.77830  34.81166
 Alpha virt. eigenvalues --   34.81909  34.85714  34.88838  34.96565  34.98902
 Alpha virt. eigenvalues --   35.01309  35.01990  35.16442  35.18795
  Beta  occ. eigenvalues --  -10.28349 -10.28349 -10.28109 -10.28108 -10.28086
  Beta  occ. eigenvalues --  -10.28084 -10.28012 -10.28010 -10.27801 -10.27799
  Beta  occ. eigenvalues --  -10.27387 -10.27385  -0.94066  -0.93460  -0.84167
  Beta  occ. eigenvalues --   -0.84054  -0.83681  -0.83570  -0.71341  -0.71069
  Beta  occ. eigenvalues --   -0.67892  -0.67801  -0.59645  -0.59501  -0.57278
  Beta  occ. eigenvalues --   -0.56548  -0.53528  -0.52675  -0.50843  -0.50805
  Beta  occ. eigenvalues --   -0.49763  -0.49262  -0.47262  -0.46776  -0.45130
  Beta  occ. eigenvalues --   -0.44925  -0.41184  -0.40883  -0.39627  -0.39164
  Beta  occ. eigenvalues --   -0.39101  -0.38833  -0.29692  -0.27391
  Beta virt. eigenvalues --    0.03655   0.05218   0.11376   0.13050   0.14352
  Beta virt. eigenvalues --    0.15434   0.15502   0.16343   0.16509   0.16922
  Beta virt. eigenvalues --    0.17583   0.17676   0.18101   0.19182   0.20918
  Beta virt. eigenvalues --    0.22074   0.22367   0.23661   0.24280   0.24369
  Beta virt. eigenvalues --    0.25519   0.26308   0.26537   0.27466   0.28687
  Beta virt. eigenvalues --    0.28963   0.29576   0.29900   0.30795   0.31153
  Beta virt. eigenvalues --    0.32091   0.32270   0.32810   0.33101   0.34046
  Beta virt. eigenvalues --    0.34372   0.34789   0.36306   0.36472   0.37847
  Beta virt. eigenvalues --    0.38443   0.39805   0.40172   0.41848   0.42247
  Beta virt. eigenvalues --    0.42252   0.44224   0.44746   0.45842   0.46556
  Beta virt. eigenvalues --    0.47097   0.47379   0.48502   0.48577   0.49159
  Beta virt. eigenvalues --    0.49310   0.49636   0.49798   0.50351   0.50747
  Beta virt. eigenvalues --    0.51177   0.51294   0.52414   0.52730   0.53334
  Beta virt. eigenvalues --    0.53852   0.54758   0.54941   0.55553   0.55887
  Beta virt. eigenvalues --    0.57637   0.58160   0.58496   0.59357   0.60422
  Beta virt. eigenvalues --    0.60705   0.61141   0.62876   0.63528   0.65050
  Beta virt. eigenvalues --    0.66121   0.67301   0.68302   0.68754   0.68997
  Beta virt. eigenvalues --    0.70570   0.72966   0.73081   0.73923   0.75047
  Beta virt. eigenvalues --    0.77616   0.78623   0.78703   0.80699   0.80828
  Beta virt. eigenvalues --    0.81975   0.82678   0.83459   0.87821   0.88238
  Beta virt. eigenvalues --    0.89281   0.90318   0.90562   0.91928   0.93081
  Beta virt. eigenvalues --    0.93452   0.95312   0.96743   0.98791   0.99114
  Beta virt. eigenvalues --    1.01086   1.03964   1.05098   1.05159   1.05219
  Beta virt. eigenvalues --    1.06846   1.07956   1.08285   1.09106   1.11772
  Beta virt. eigenvalues --    1.13143   1.13903   1.14340   1.15193   1.16054
  Beta virt. eigenvalues --    1.16380   1.17200   1.17840   1.19127   1.20665
  Beta virt. eigenvalues --    1.20852   1.21740   1.24430   1.24626   1.25010
  Beta virt. eigenvalues --    1.25683   1.26337   1.27516   1.28246   1.28880
  Beta virt. eigenvalues --    1.29309   1.31250   1.31833   1.32816   1.32912
  Beta virt. eigenvalues --    1.34310   1.35065   1.37419   1.37600   1.37813
  Beta virt. eigenvalues --    1.38935   1.39257   1.40844   1.41396   1.41997
  Beta virt. eigenvalues --    1.43178   1.43694   1.43729   1.44020   1.45241
  Beta virt. eigenvalues --    1.46134   1.46801   1.47186   1.47942   1.48666
  Beta virt. eigenvalues --    1.49504   1.51069   1.51926   1.54390   1.56002
  Beta virt. eigenvalues --    1.57567   1.58261   1.58869   1.59797   1.61394
  Beta virt. eigenvalues --    1.62015   1.63437   1.63762   1.66013   1.67833
  Beta virt. eigenvalues --    1.68679   1.70652   1.72766   1.74503   1.78405
  Beta virt. eigenvalues --    1.78464   1.80740   1.80906   1.83946   1.84453
  Beta virt. eigenvalues --    1.86818   1.87698   1.90339   1.91327   1.91893
  Beta virt. eigenvalues --    1.93170   1.97259   1.98524   2.00581   2.01157
  Beta virt. eigenvalues --    2.03870   2.03883   2.07277   2.08766   2.09027
  Beta virt. eigenvalues --    2.10104   2.12021   2.12941   2.13930   2.15657
  Beta virt. eigenvalues --    2.17850   2.20238   2.20668   2.21363   2.22753
  Beta virt. eigenvalues --    2.23439   2.24944   2.25325   2.27142   2.27269
  Beta virt. eigenvalues --    2.31485   2.35456   2.37679   2.38913   2.41588
  Beta virt. eigenvalues --    2.43575   2.45258   2.45734   2.49329   2.50000
  Beta virt. eigenvalues --    2.50202   2.50836   2.53638   2.54776   2.55454
  Beta virt. eigenvalues --    2.56150   2.57869   2.58737   2.61265   2.61977
  Beta virt. eigenvalues --    2.62642   2.64923   2.64951   2.65542   2.66245
  Beta virt. eigenvalues --    2.66921   2.67889   2.71042   2.72441   2.72927
  Beta virt. eigenvalues --    2.73361   2.73917   2.74989   2.76008   2.77089
  Beta virt. eigenvalues --    2.77607   2.78884   2.79856   2.80862   2.81325
  Beta virt. eigenvalues --    2.81395   2.82929   2.83126   2.84205   2.85334
  Beta virt. eigenvalues --    2.86298   2.86668   2.87358   2.87842   2.90215
  Beta virt. eigenvalues --    2.91165   2.91393   2.92694   2.92756   2.94310
  Beta virt. eigenvalues --    2.95199   2.95723   2.95928   2.96861   3.00882
  Beta virt. eigenvalues --    3.01441   3.02409   3.03345   3.04907   3.06058
  Beta virt. eigenvalues --    3.07672   3.09373   3.10009   3.10103   3.10514
  Beta virt. eigenvalues --    3.11948   3.13205   3.13612   3.14762   3.15398
  Beta virt. eigenvalues --    3.15602   3.16792   3.17314   3.18804   3.19456
  Beta virt. eigenvalues --    3.20082   3.20474   3.20765   3.21075   3.21814
  Beta virt. eigenvalues --    3.22093   3.22984   3.23524   3.24112   3.24495
  Beta virt. eigenvalues --    3.25952   3.26398   3.26727   3.27000   3.28039
  Beta virt. eigenvalues --    3.28268   3.30744   3.30800   3.31763   3.31767
  Beta virt. eigenvalues --    3.32756   3.32805   3.33664   3.34466   3.34490
  Beta virt. eigenvalues --    3.36065   3.36106   3.36786   3.37884   3.39100
  Beta virt. eigenvalues --    3.39877   3.42021   3.42985   3.43438   3.44147
  Beta virt. eigenvalues --    3.45444   3.45633   3.46729   3.47072   3.47257
  Beta virt. eigenvalues --    3.48361   3.49539   3.50009   3.50877   3.51629
  Beta virt. eigenvalues --    3.52284   3.53336   3.53675   3.55055   3.55100
  Beta virt. eigenvalues --    3.57484   3.57666   3.58007   3.60516   3.65179
  Beta virt. eigenvalues --    3.65443   3.65736   3.66004   3.67817   3.68430
  Beta virt. eigenvalues --    3.68751   3.69208   3.71942   3.72046   3.73962
  Beta virt. eigenvalues --    3.76772   3.76855   3.78739   3.80852   3.82531
  Beta virt. eigenvalues --    3.85229   3.85737   3.85841   3.86654   3.87098
  Beta virt. eigenvalues --    3.89055   3.91502   3.92222   3.94151   3.95126
  Beta virt. eigenvalues --    3.97051   3.98295   4.01575   4.01669   4.04110
  Beta virt. eigenvalues --    4.05889   4.08254   4.09127   4.09175   4.10696
  Beta virt. eigenvalues --    4.12088   4.13104   4.14669   4.15088   4.18560
  Beta virt. eigenvalues --    4.18686   4.20470   4.20864   4.23535   4.24889
  Beta virt. eigenvalues --    4.25509   4.27372   4.30966   4.31147   4.34710
  Beta virt. eigenvalues --    4.35234   4.38619   4.38635   4.39723   4.42085
  Beta virt. eigenvalues --    4.43704   4.44446   4.47686   4.49100   4.51670
  Beta virt. eigenvalues --    4.53438   4.59128   4.61312   4.63980   4.67412
  Beta virt. eigenvalues --    4.68036   4.69095   4.73378   4.73600   4.76262
  Beta virt. eigenvalues --    4.77184   4.79701   4.80552   4.83688   4.84736
  Beta virt. eigenvalues --    4.85471   4.86426   4.91262   4.93849   4.94831
  Beta virt. eigenvalues --    4.95820   4.97706   4.99805   5.06815   5.07875
  Beta virt. eigenvalues --    5.13904   5.14965   5.19459   5.20224   5.22797
  Beta virt. eigenvalues --    5.23449   5.32565   5.32958   5.41376   5.42281
  Beta virt. eigenvalues --    5.43654   5.44634   5.50179   5.51254   5.69227
  Beta virt. eigenvalues --    5.71220   5.76402   5.79018   5.94761   6.02205
  Beta virt. eigenvalues --    7.94161   7.95555   8.01194   8.04826   8.05557
  Beta virt. eigenvalues --    8.08093   8.09897   8.12263   8.17812   8.18654
  Beta virt. eigenvalues --    8.35381   8.35938  34.76309  34.77830  34.81166
  Beta virt. eigenvalues --   34.81909  34.85714  34.88838  34.96565  34.98902
  Beta virt. eigenvalues --   35.01309  35.01990  35.16442  35.18795
          Condensed to atoms (all electrons):
               1          2          3          4          5          6
     1  C    5.141845   0.001384   0.423199  -0.001795   0.001024  -0.005027
     2  C    0.001384   5.340327  -0.002100   0.426149  -0.031486  -0.040318
     3  H    0.423199  -0.002100   0.491356   0.000027  -0.000042  -0.000003
     4  H   -0.001795   0.426149   0.000027   0.466619  -0.003592   0.003082
     5  C    0.001024  -0.031486  -0.000042  -0.003592   5.167972   0.501987
     6  C   -0.005027  -0.040318  -0.000003   0.003082   0.501987   5.340789
     7  H    0.000281  -0.001709   0.000001  -0.000072   0.424458  -0.027047
     8  H   -0.001630   0.003114  -0.000021  -0.000014  -0.040664   0.426079
     9  C    0.001714  -0.004687  -0.000005  -0.001470  -0.059850   0.217949
    10  H   -0.000038   0.000263  -0.000001  -0.000102  -0.004323  -0.035405
    11  H    0.000034  -0.004432   0.000001   0.000190   0.008809  -0.058745
    12  C   -0.000137   0.009518   0.000002   0.001512   0.291803  -0.068715
    13  H   -0.000001   0.000028   0.000000   0.000012  -0.035618   0.004642
    14  C    0.000147  -0.004982  -0.000000  -0.001575  -0.052837   0.001536
    15  H   -0.000000  -0.000003  -0.000000  -0.000020   0.006952  -0.002097
    16  C   -0.000612   0.012143  -0.000000   0.000641   0.000552  -0.061286
    17  H   -0.000046  -0.000765  -0.000001  -0.001116   0.009394  -0.001670
    18  H    0.000003   0.000506   0.000000   0.000197  -0.003187   0.011630
    19  C   -0.052571   0.502092   0.006957  -0.040789  -0.010078  -0.031599
    20  H    0.003574  -0.026430  -0.000082  -0.004307   0.000294  -0.001712
    21  C    0.580933  -0.068529  -0.031153   0.005008   0.001217   0.009625
    22  H   -0.024735   0.004712  -0.005552  -0.000052   0.000019   0.000029
    23  C   -0.080834   0.218273   0.005055  -0.013457   0.008398  -0.004755
    24  H    0.013463  -0.058848  -0.000083  -0.003957   0.001215  -0.004440
    25  H    0.003664  -0.035292  -0.000052  -0.000484   0.000519   0.000261
    26  C    0.277035  -0.061128  -0.028654   0.003578  -0.005358   0.012183
    27  H   -0.039547   0.011625  -0.004434  -0.000086   0.000287   0.000506
    28  H   -0.035742  -0.001643   0.001001  -0.000128  -0.003251  -0.000812
               7          8          9         10         11         12
     1  C    0.000281  -0.001630   0.001714  -0.000038   0.000034  -0.000137
     2  C   -0.001709   0.003114  -0.004687   0.000263  -0.004432   0.009518
     3  H    0.000001  -0.000021  -0.000005  -0.000001   0.000001   0.000002
     4  H   -0.000072  -0.000014  -0.001470  -0.000102   0.000190   0.001512
     5  C    0.424458  -0.040664  -0.059850  -0.004323   0.008809   0.291803
     6  C   -0.027047   0.426079   0.217949  -0.035405  -0.058745  -0.068715
     7  H    0.475618  -0.004297   0.002870  -0.000262  -0.000018  -0.029085
     8  H   -0.004297   0.466136  -0.013384  -0.000487  -0.003940   0.004971
     9  C    0.002870  -0.013384   4.984612   0.385742   0.461281   0.036418
    10  H   -0.000262  -0.000487   0.385742   0.568991  -0.020690   0.001533
    11  H   -0.000018  -0.003940   0.461281  -0.020690   0.533299  -0.004554
    12  C   -0.029085   0.004971   0.036418   0.001533  -0.004554   5.007406
    13  H   -0.003136  -0.000052  -0.000291  -0.000050   0.000025   0.424628
    14  C    0.003554  -0.001780  -0.080979   0.003702   0.013442   0.580896
    15  H   -0.000083   0.000027   0.005059  -0.000051  -0.000083  -0.031205
    16  C   -0.000772   0.003556   0.346170  -0.021677  -0.056345  -0.058908
    17  H    0.000018  -0.000128  -0.033114   0.006616  -0.008239  -0.014394
    18  H    0.000027  -0.000086  -0.044909  -0.008546  -0.000806   0.006466
    19  C    0.000296  -0.003609   0.008385   0.000515   0.001252   0.001238
    20  H    0.000008  -0.000071   0.002287   0.000185  -0.001285  -0.000136
    21  C   -0.000138   0.001530  -0.001477  -0.000015  -0.000047  -0.000299
    22  H   -0.000001   0.000013  -0.000048  -0.000001   0.000010  -0.000000
    23  C    0.002288  -0.001464   0.000963  -0.000021   0.000192  -0.001468
    24  H   -0.001265   0.000191   0.000196  -0.000006  -0.000019  -0.000042
    25  H    0.000186  -0.000103  -0.000022   0.000003  -0.000005  -0.000014
    26  C   -0.001560   0.000636  -0.000838   0.000069  -0.000088   0.000811
    27  H   -0.000023   0.000198  -0.000023   0.000001  -0.000001  -0.000045
    28  H    0.001498  -0.001149   0.000470  -0.000006   0.000014   0.000530
              13         14         15         16         17         18
     1  C   -0.000001   0.000147  -0.000000  -0.000612  -0.000046   0.000003
     2  C    0.000028  -0.004982  -0.000003   0.012143  -0.000765   0.000506
     3  H    0.000000  -0.000000  -0.000000  -0.000000  -0.000001   0.000000
     4  H    0.000012  -0.001575  -0.000020   0.000641  -0.001116   0.000197
     5  C   -0.035618  -0.052837   0.006952   0.000552   0.009394  -0.003187
     6  C    0.004642   0.001536  -0.002097  -0.061286  -0.001670   0.011630
     7  H   -0.003136   0.003554  -0.000083  -0.000772   0.000018   0.000027
     8  H   -0.000052  -0.001780   0.000027   0.003556  -0.000128  -0.000086
     9  C   -0.000291  -0.080979   0.005059   0.346170  -0.033114  -0.044909
    10  H   -0.000050   0.003702  -0.000051  -0.021677   0.006616  -0.008546
    11  H    0.000025   0.013442  -0.000083  -0.056345  -0.008239  -0.000806
    12  C    0.424628   0.580896  -0.031205  -0.058908  -0.014394   0.006466
    13  H    0.488364  -0.024979  -0.005555   0.004121  -0.000369  -0.000088
    14  C   -0.024979   5.142128   0.423226   0.277131  -0.035801  -0.039584
    15  H   -0.005555   0.423226   0.491388  -0.028636   0.001005  -0.004438
    16  C    0.004121   0.277131  -0.028636   4.938388   0.401792   0.437846
    17  H   -0.000369  -0.035801   0.001005   0.401792   0.584825  -0.022027
    18  H   -0.000088  -0.039584  -0.004438   0.437846  -0.022027   0.537310
    19  C    0.000019   0.001014  -0.000042  -0.005346  -0.003297   0.000288
    20  H   -0.000001   0.000280   0.000001  -0.001577   0.001481  -0.000023
    21  C   -0.000000  -0.000137   0.000002   0.000812   0.000531  -0.000045
    22  H    0.000000  -0.000001   0.000000   0.000015  -0.000001  -0.000001
    23  C   -0.000049   0.001707  -0.000005  -0.000837   0.000473  -0.000023
    24  H    0.000011   0.000033   0.000001  -0.000088   0.000014  -0.000001
    25  H   -0.000001  -0.000038  -0.000001   0.000070  -0.000006   0.000001
    26  C    0.000015  -0.000611  -0.000000   0.000930   0.000074  -0.000003
    27  H   -0.000001   0.000003   0.000000  -0.000003   0.000002  -0.000000
    28  H   -0.000001  -0.000045  -0.000001   0.000074  -0.000020   0.000002
              19         20         21         22         23         24
     1  C   -0.052571   0.003574   0.580933  -0.024735  -0.080834   0.013463
     2  C    0.502092  -0.026430  -0.068529   0.004712   0.218273  -0.058848
     3  H    0.006957  -0.000082  -0.031153  -0.005552   0.005055  -0.000083
     4  H   -0.040789  -0.004307   0.005008  -0.000052  -0.013457  -0.003957
     5  C   -0.010078   0.000294   0.001217   0.000019   0.008398   0.001215
     6  C   -0.031599  -0.001712   0.009625   0.000029  -0.004755  -0.004440
     7  H    0.000296   0.000008  -0.000138  -0.000001   0.002288  -0.001265
     8  H   -0.003609  -0.000071   0.001530   0.000013  -0.001464   0.000191
     9  C    0.008385   0.002287  -0.001477  -0.000048   0.000963   0.000196
    10  H    0.000515   0.000185  -0.000015  -0.000001  -0.000021  -0.000006
    11  H    0.001252  -0.001285  -0.000047   0.000010   0.000192  -0.000019
    12  C    0.001238  -0.000136  -0.000299  -0.000000  -0.001468  -0.000042
    13  H    0.000019  -0.000001  -0.000000   0.000000  -0.000049   0.000011
    14  C    0.001014   0.000280  -0.000137  -0.000001   0.001707   0.000033
    15  H   -0.000042   0.000001   0.000002   0.000000  -0.000005   0.000001
    16  C   -0.005346  -0.001577   0.000812   0.000015  -0.000837  -0.000088
    17  H   -0.003297   0.001481   0.000531  -0.000001   0.000473   0.000014
    18  H    0.000288  -0.000023  -0.000045  -0.000001  -0.000023  -0.000001
    19  C    5.168624   0.423979   0.291168  -0.035766  -0.060042   0.008887
    20  H    0.423979   0.475262  -0.029200  -0.003126   0.002868  -0.000017
    21  C    0.291168  -0.029200   5.007986   0.424447   0.036355  -0.004570
    22  H   -0.035766  -0.003126   0.424447   0.488254  -0.000291   0.000025
    23  C   -0.060042   0.002868   0.036355  -0.000291   4.984756   0.461455
    24  H    0.008887  -0.000017  -0.004570   0.000025   0.461455   0.532925
    25  H   -0.004353  -0.000263   0.001565  -0.000050   0.385526  -0.020637
    26  C    0.000288  -0.000776  -0.058833   0.004130   0.345976  -0.056396
    27  H   -0.003180   0.000027   0.006465  -0.000089  -0.044898  -0.000811
    28  H    0.009384   0.000018  -0.014353  -0.000369  -0.033305  -0.008218
              25         26         27         28
     1  C    0.003664   0.277035  -0.039547  -0.035742
     2  C   -0.035292  -0.061128   0.011625  -0.001643
     3  H   -0.000052  -0.028654  -0.004434   0.001001
     4  H   -0.000484   0.003578  -0.000086  -0.000128
     5  C    0.000519  -0.005358   0.000287  -0.003251
     6  C    0.000261   0.012183   0.000506  -0.000812
     7  H    0.000186  -0.001560  -0.000023   0.001498
     8  H   -0.000103   0.000636   0.000198  -0.001149
     9  C   -0.000022  -0.000838  -0.000023   0.000470
    10  H    0.000003   0.000069   0.000001  -0.000006
    11  H   -0.000005  -0.000088  -0.000001   0.000014
    12  C   -0.000014   0.000811  -0.000045   0.000530
    13  H   -0.000001   0.000015  -0.000001  -0.000001
    14  C   -0.000038  -0.000611   0.000003  -0.000045
    15  H   -0.000001  -0.000000   0.000000  -0.000001
    16  C    0.000070   0.000930  -0.000003   0.000074
    17  H   -0.000006   0.000074   0.000002  -0.000020
    18  H    0.000001  -0.000003  -0.000000   0.000002
    19  C   -0.004353   0.000288  -0.003180   0.009384
    20  H   -0.000263  -0.000776   0.000027   0.000018
    21  C    0.001565  -0.058833   0.006465  -0.014353
    22  H   -0.000050   0.004130  -0.000089  -0.000369
    23  C    0.385526   0.345976  -0.044898  -0.033305
    24  H   -0.020637  -0.056396  -0.000811  -0.008218
    25  H    0.569031  -0.021592  -0.008547   0.006618
    26  C   -0.021592   4.938975   0.437777   0.401939
    27  H   -0.008547   0.437777   0.537285  -0.022043
    28  H    0.006618   0.401939  -0.022043   0.584620
          Atomic-Atomic Spin Densities.
               1          2          3          4          5          6
     1  C    0.000001   0.000000  -0.000000  -0.000000  -0.000000  -0.000000
     2  C    0.000000  -0.000001  -0.000000  -0.000000   0.000000   0.000000
     3  H   -0.000000  -0.000000  -0.000000   0.000000   0.000000  -0.000000
     4  H   -0.000000  -0.000000   0.000000   0.000000   0.000000   0.000000
     5  C   -0.000000   0.000000   0.000000   0.000000   0.000000  -0.000000
     6  C   -0.000000   0.000000  -0.000000   0.000000  -0.000000  -0.000000
     7  H    0.000000  -0.000000  -0.000000  -0.000000   0.000000   0.000000
     8  H   -0.000000  -0.000000   0.000000   0.000000  -0.000000   0.000000
     9  C    0.000000  -0.000000   0.000000   0.000000  -0.000000  -0.000000
    10  H   -0.000000   0.000000   0.000000  -0.000000   0.000000   0.000000
    11  H   -0.000000   0.000000  -0.000000  -0.000000  -0.000000   0.000000
    12  C    0.000000  -0.000000  -0.000000  -0.000000   0.000000   0.000000
    13  H    0.000000  -0.000000  -0.000000   0.000000  -0.000000   0.000000
    14  C    0.000000   0.000000   0.000000   0.000000  -0.000000  -0.000000
    15  H   -0.000000   0.000000   0.000000  -0.000000  -0.000000   0.000000
    16  C    0.000000  -0.000000  -0.000000  -0.000000   0.000000   0.000000
    17  H   -0.000000   0.000000   0.000000  -0.000000  -0.000000  -0.000000
    18  H    0.000000  -0.000000  -0.000000  -0.000000   0.000000   0.000000
    19  C   -0.000000  -0.000000  -0.000000   0.000000  -0.000000  -0.000000
    20  H    0.000000  -0.000000  -0.000000  -0.000000   0.000000   0.000000
    21  C   -0.000000   0.000000  -0.000000   0.000000  -0.000000   0.000000
    22  H    0.000000  -0.000000   0.000000   0.000000  -0.000000   0.000000
    23  C    0.000000   0.000000  -0.000000   0.000000   0.000000   0.000000
    24  H    0.000000  -0.000000   0.000000   0.000000  -0.000000  -0.000000
    25  H    0.000000   0.000000  -0.000000  -0.000000   0.000000   0.000000
    26  C   -0.000000  -0.000000   0.000000   0.000000  -0.000000   0.000000
    27  H   -0.000000  -0.000000   0.000000  -0.000000  -0.000000   0.000000
    28  H   -0.000000  -0.000000  -0.000000  -0.000000   0.000000  -0.000000
               7          8          9         10         11         12
     1  C    0.000000  -0.000000   0.000000  -0.000000  -0.000000   0.000000
     2  C   -0.000000  -0.000000  -0.000000   0.000000   0.000000  -0.000000
     3  H   -0.000000   0.000000   0.000000   0.000000  -0.000000  -0.000000
     4  H   -0.000000   0.000000   0.000000  -0.000000  -0.000000  -0.000000
     5  C    0.000000  -0.000000  -0.000000   0.000000  -0.000000   0.000000
     6  C    0.000000   0.000000  -0.000000   0.000000   0.000000   0.000000
     7  H   -0.000000   0.000000  -0.000000   0.000000   0.000000   0.000000
     8  H    0.000000  -0.000000  -0.000000   0.000000  -0.000000  -0.000000
     9  C   -0.000000  -0.000000   0.000001   0.000000  -0.000000   0.000000
    10  H    0.000000   0.000000   0.000000  -0.000000   0.000000  -0.000000
    11  H    0.000000  -0.000000  -0.000000   0.000000  -0.000000   0.000000
    12  C    0.000000  -0.000000   0.000000  -0.000000   0.000000  -0.000000
    13  H   -0.000000  -0.000000  -0.000000   0.000000   0.000000   0.000000
    14  C   -0.000000   0.000000  -0.000000  -0.000000  -0.000000   0.000000
    15  H    0.000000  -0.000000   0.000000   0.000000  -0.000000   0.000000
    16  C    0.000000  -0.000000  -0.000000   0.000000   0.000000  -0.000000
    17  H    0.000000   0.000000  -0.000000  -0.000000   0.000000  -0.000000
    18  H   -0.000000   0.000000  -0.000000   0.000000   0.000000   0.000000
    19  C   -0.000000  -0.000000  -0.000000   0.000000   0.000000   0.000000
    20  H   -0.000000  -0.000000  -0.000000  -0.000000  -0.000000  -0.000000
    21  C    0.000000   0.000000   0.000000   0.000000  -0.000000   0.000000
    22  H    0.000000   0.000000   0.000000  -0.000000  -0.000000  -0.000000
    23  C    0.000000  -0.000000   0.000000   0.000000  -0.000000  -0.000000
    24  H    0.000000   0.000000   0.000000  -0.000000  -0.000000   0.000000
    25  H    0.000000   0.000000  -0.000000   0.000000   0.000000  -0.000000
    26  C    0.000000   0.000000  -0.000000  -0.000000   0.000000   0.000000
    27  H    0.000000   0.000000   0.000000  -0.000000  -0.000000   0.000000
    28  H   -0.000000  -0.000000  -0.000000   0.000000   0.000000   0.000000
              13         14         15         16         17         18
     1  C    0.000000   0.000000  -0.000000   0.000000  -0.000000   0.000000
     2  C   -0.000000   0.000000   0.000000  -0.000000   0.000000  -0.000000
     3  H   -0.000000   0.000000   0.000000  -0.000000   0.000000  -0.000000
     4  H    0.000000   0.000000  -0.000000  -0.000000  -0.000000  -0.000000
     5  C   -0.000000  -0.000000  -0.000000   0.000000  -0.000000   0.000000
     6  C    0.000000  -0.000000   0.000000   0.000000  -0.000000   0.000000
     7  H   -0.000000  -0.000000   0.000000   0.000000   0.000000  -0.000000
     8  H   -0.000000   0.000000  -0.000000  -0.000000   0.000000   0.000000
     9  C   -0.000000  -0.000000   0.000000  -0.000000  -0.000000  -0.000000
    10  H    0.000000  -0.000000   0.000000   0.000000  -0.000000   0.000000
    11  H    0.000000  -0.000000  -0.000000   0.000000   0.000000   0.000000
    12  C    0.000000   0.000000   0.000000  -0.000000  -0.000000   0.000000
    13  H    0.000000  -0.000000  -0.000000   0.000000   0.000000  -0.000000
    14  C   -0.000000   0.000000  -0.000000   0.000000  -0.000000   0.000000
    15  H   -0.000000  -0.000000   0.000000  -0.000000   0.000000  -0.000000
    16  C    0.000000   0.000000  -0.000000  -0.000000   0.000000   0.000000
    17  H    0.000000  -0.000000   0.000000   0.000000   0.000000  -0.000000
    18  H   -0.000000   0.000000  -0.000000   0.000000  -0.000000   0.000000
    19  C   -0.000000   0.000000  -0.000000   0.000000  -0.000000   0.000000
    20  H   -0.000000  -0.000000   0.000000  -0.000000   0.000000  -0.000000
    21  C    0.000000  -0.000000   0.000000  -0.000000   0.000000  -0.000000
    22  H    0.000000  -0.000000   0.000000  -0.000000   0.000000  -0.000000
    23  C    0.000000  -0.000000  -0.000000   0.000000   0.000000  -0.000000
    24  H    0.000000   0.000000  -0.000000   0.000000  -0.000000   0.000000
    25  H   -0.000000   0.000000  -0.000000   0.000000  -0.000000   0.000000
    26  C    0.000000  -0.000000   0.000000   0.000000  -0.000000  -0.000000
    27  H    0.000000  -0.000000   0.000000   0.000000  -0.000000  -0.000000
[...]
     4  H   -0.000000   0.000000  -0.000000  -0.000000
     5  C    0.000000  -0.000000  -0.000000   0.000000
     6  C    0.000000   0.000000   0.000000  -0.000000
     7  H    0.000000   0.000000   0.000000  -0.000000
     8  H    0.000000   0.000000   0.000000  -0.000000
     9  C   -0.000000  -0.000000   0.000000  -0.000000
    10  H    0.000000  -0.000000  -0.000000   0.000000
    11  H    0.000000   0.000000  -0.000000   0.000000
    12  C   -0.000000   0.000000   0.000000  -0.000000
    13  H   -0.000000   0.000000   0.000000  -0.000000
    14  C    0.000000  -0.000000  -0.000000   0.000000
    15  H   -0.000000   0.000000   0.000000  -0.000000
    16  C    0.000000   0.000000   0.000000   0.000000
    17  H   -0.000000  -0.000000  -0.000000  -0.000000
    18  H    0.000000  -0.000000  -0.000000   0.000000
    19  C   -0.000000  -0.000000  -0.000000   0.000000
    20  H   -0.000000  -0.000000   0.000000  -0.000000
    21  C    0.000000   0.000000  -0.000000   0.000000
    22  H   -0.000000  -0.000000   0.000000  -0.000000
    23  C   -0.000000   0.000000   0.000000   0.000000
    24  H   -0.000000  -0.000000  -0.000000  -0.000000
    25  H    0.000000  -0.000000  -0.000000   0.000000
    26  C   -0.000000   0.000000  -0.000000  -0.000000
    27  H   -0.000000  -0.000000  -0.000000  -0.000000
    28  H    0.000000  -0.000000  -0.000000  -0.000000
 Mulliken charges and spin densities:
               1          2
     1  C   -0.203636   0.000000
     2  C   -0.200921  -0.000000
     3  H    0.148241  -0.000000
     4  H    0.172012   0.000000
     5  C   -0.189472   0.000000
     6  C   -0.196936  -0.000000
     7  H    0.167385  -0.000000
     8  H    0.170904  -0.000000
     9  C   -0.221846   0.000000
    10  H    0.131389  -0.000000
    11  H    0.144835  -0.000000
    12  C   -0.163292  -0.000000
    13  H    0.151848   0.000000
    14  C   -0.201807  -0.000000
    15  H    0.148195   0.000000
    16  C   -0.193597  -0.000000
    17  H    0.119914   0.000000
    18  H    0.132753   0.000000
    19  C   -0.189711   0.000000
    20  H    0.168800   0.000000
    21  C   -0.159655  -0.000000
    22  H    0.151380  -0.000000
    23  C   -0.220893  -0.000000
    24  H    0.144592   0.000000
    25  H    0.131263   0.000000
    26  C   -0.193795   0.000000
    27  H    0.133262  -0.000000
    28  H    0.118787  -0.000000
 Sum of Mulliken charges =  -0.00000   0.00000
 Mulliken charges and spin densities with hydrogens summed into heavy atoms:
               1          2
     1  C   -0.055394   0.000000
     2  C   -0.028909  -0.000000
     5  C   -0.022088   0.000000
     6  C   -0.026032  -0.000000
     9  C    0.054378   0.000000
    12  C   -0.011443   0.000000
    14  C   -0.053611  -0.000000
    16  C    0.059070  -0.000000
    19  C   -0.020910   0.000000
    21  C   -0.008275  -0.000000
    23  C    0.054962  -0.000000
    26  C    0.058254   0.000000
 Electronic spatial extent (au):  <R**2>=           2293.4780
 Charge=              0.0000 electrons
 Dipole moment (field-independent basis, Debye):
    X=              0.0011    Y=             -0.0061    Z=             -0.0063  Tot=              0.0088
 Quadrupole moment (field-independent basis, Debye-Ang):
   XX=            -70.2614   YY=            -68.1324   ZZ=            -75.3514
   XY=             -3.3733   XZ=             -3.7318   YZ=             -1.7258
 Traceless Quadrupole moment (field-independent basis, Debye-Ang):
   XX=              0.9870   YY=              3.1160   ZZ=             -4.1030
   XY=             -3.3733   XZ=             -3.7318   YZ=             -1.7258
 Octapole moment (field-independent basis, Debye-Ang**2):
  XXX=             -0.0032  YYY=             -0.0355  ZZZ=             -0.0317  XYY=              0.0040
  XXY=             -0.0076  XXZ=             -0.0290  XZZ=              0.0036  YZZ=             -0.0157
  YYZ=             -0.0155  XYZ=              0.0082
 Hexadecapole moment (field-independent basis, Debye-Ang**3):
 XXXX=          -2036.1020 YYYY=           -610.4385 ZZZZ=           -399.6558 XXXY=           -112.2291
 XXXZ=           -152.9602 YYYX=            -63.6212 YYYZ=             -5.9522 ZZZX=            -95.8977
 ZZZY=            -18.4598 XXYY=           -437.2975 XXZZ=           -429.1117 YYZZ=           -183.4191
 XXYZ=            -25.1118 YYXZ=            -34.8666 ZZXY=            -46.2077
 N-N= 6.761877077365D+02 E-N=-2.435000925589D+03  KE= 4.643215178465D+02
                          Isotropic Fermi Contact Couplings
        Atom                 a.u.       MegaHertz       Gauss      10(-4) cm-1
     1  C(13)              0.00000       0.00002       0.00001       0.00001
     2  C(13)              0.00000       0.00001       0.00000       0.00000
     3  H(1)              -0.00000      -0.00002      -0.00001      -0.00001
     4  H(1)               0.00000       0.00001       0.00000       0.00000
     5  C(13)              0.00000       0.00004       0.00001       0.00001
     6  C(13)             -0.00000      -0.00003      -0.00001      -0.00001
     7  H(1)              -0.00000      -0.00007      -0.00002      -0.00002
     8  H(1)               0.00000       0.00000       0.00000       0.00000
     9  C(13)              0.00000       0.00014       0.00005       0.00005
    10  H(1)              -0.00000      -0.00007      -0.00003      -0.00002
    11  H(1)              -0.00000      -0.00010      -0.00003      -0.00003
    12  C(13)             -0.00000      -0.00003      -0.00001      -0.00001
    13  H(1)               0.00000       0.00006       0.00002       0.00002
    14  C(13)             -0.00000      -0.00000      -0.00000      -0.00000
    15  H(1)               0.00000       0.00000       0.00000       0.00000
    16  C(13)             -0.00000      -0.00008      -0.00003      -0.00003
    17  H(1)               0.00000       0.00002       0.00001       0.00001
    18  H(1)               0.00000       0.00001       0.00000       0.00000
    19  C(13)             -0.00000      -0.00002      -0.00001      -0.00001
    20  H(1)               0.00000       0.00006       0.00002       0.00002
    21  C(13)              0.00000       0.00001       0.00000       0.00000
    22  H(1)              -0.00000      -0.00005      -0.00002      -0.00002
    23  C(13)             -0.00000      -0.00013      -0.00005      -0.00004
    24  H(1)               0.00000       0.00009       0.00003       0.00003
    25  H(1)               0.00000       0.00006       0.00002       0.00002
    26  C(13)              0.00000       0.00007       0.00002       0.00002
    27  H(1)               0.00000       0.00000       0.00000       0.00000
    28  H(1)              -0.00000      -0.00001      -0.00000      -0.00000
 --------------------------------------------------------
       Center         ----  Spin Dipole Couplings  ----
                      3XX-RR        3YY-RR        3ZZ-RR
 --------------------------------------------------------
     1   Atom        0.000000     -0.000000      0.000000
     2   Atom       -0.000000      0.000000     -0.000000
     3   Atom       -0.000000     -0.000000      0.000000
     4   Atom       -0.000000      0.000000     -0.000000
     5   Atom        0.000000      0.000000     -0.000000
     6   Atom        0.000000     -0.000000     -0.000000
     7   Atom       -0.000000      0.000000     -0.000000
     8   Atom       -0.000000     -0.000000      0.000000
     9   Atom        0.000000     -0.000000      0.000000
    10   Atom       -0.000000     -0.000000      0.000000
    11   Atom       -0.000000      0.000000     -0.000000
    12   Atom       -0.000000     -0.000000      0.000000
    13   Atom        0.000000     -0.000000      0.000000
    14   Atom       -0.000000      0.000000      0.000000
    15   Atom        0.000000      0.000000     -0.000000
    16   Atom       -0.000000      0.000000     -0.000000
    17   Atom        0.000000      0.000000     -0.000000
    18   Atom       -0.000000     -0.000000      0.000000
    19   Atom       -0.000000     -0.000000      0.000000
    20   Atom        0.000000     -0.000000      0.000000
    21   Atom        0.000000      0.000000     -0.000000
    22   Atom        0.000000      0.000000     -0.000000
    23   Atom       -0.000000      0.000000     -0.000000
    24   Atom        0.000000     -0.000000      0.000000
    25   Atom        0.000000      0.000000     -0.000000
    26   Atom        0.000000     -0.000000      0.000000
    27   Atom        0.000000      0.000000     -0.000000
    28   Atom       -0.000000     -0.000000      0.000000
 --------------------------------------------------------
                        XY            XZ            YZ
 --------------------------------------------------------
     1   Atom       -0.000000      0.000000     -0.000000
     2   Atom       -0.000000     -0.000000     -0.000000
     3   Atom        0.000000     -0.000000     -0.000000
     4   Atom        0.000000      0.000000     -0.000000
     5   Atom        0.000000      0.000000      0.000000
     6   Atom        0.000000      0.000000     -0.000000
     7   Atom       -0.000000     -0.000000      0.000000
     8   Atom       -0.000000     -0.000000      0.000000
     9   Atom        0.000000     -0.000000      0.000000
    10   Atom       -0.000000      0.000000     -0.000000
    11   Atom        0.000000      0.000000      0.000000
    12   Atom        0.000000     -0.000000      0.000000
    13   Atom       -0.000000      0.000000      0.000000
    14   Atom        0.000000     -0.000000      0.000000
    15   Atom        0.000000      0.000000      0.000000
    16   Atom        0.000000      0.000000      0.000000
    17   Atom       -0.000000     -0.000000     -0.000000
    18   Atom        0.000000     -0.000000      0.000000
    19   Atom        0.000000      0.000000      0.000000
    20   Atom        0.000000      0.000000     -0.000000
    21   Atom       -0.000000     -0.000000     -0.000000
    22   Atom       -0.000000     -0.000000     -0.000000
    23   Atom       -0.000000      0.000000     -0.000000
    24   Atom       -0.000000     -0.000000     -0.000000
    25   Atom        0.000000     -0.000000      0.000000
    26   Atom       -0.000000     -0.000000     -0.000000
    27   Atom       -0.000000      0.000000     -0.000000
    28   Atom        0.000000      0.000000      0.000000
 --------------------------------------------------------


 ---------------------------------------------------------------------------------
              Anisotropic Spin Dipole Couplings in Principal Axis System
 ---------------------------------------------------------------------------------

       Atom             a.u.   MegaHertz   Gauss  10(-4) cm-1        Axes

              Baa    -0.0000    -0.000    -0.000    -0.000 -0.4851  0.5970  0.6390
     1 C(13)  Bbb    -0.0000    -0.000    -0.000    -0.000  0.5137  0.7859 -0.3442
              Bcc     0.0000     0.000     0.000     0.000  0.7077 -0.1613  0.6879
 
              Baa    -0.0000    -0.000    -0.000    -0.000  0.6654  0.1898  0.7220
     2 C(13)  Bbb     0.0000     0.000     0.000     0.000  0.4913  0.6168 -0.6149
              Bcc     0.0000     0.000     0.000     0.000 -0.5620  0.7639  0.3172
 
              Baa    -0.0000    -0.000    -0.000    -0.000  0.0511  0.9758  0.2128
     3 H(1)   Bbb    -0.0000    -0.000    -0.000    -0.000  0.8831 -0.1437  0.4467
              Bcc     0.0000     0.000     0.000     0.000 -0.4664 -0.1651  0.8690
 
              Baa    -0.0000    -0.000    -0.000    -0.000 -0.6274  0.0868  0.7739
     4 H(1)   Bbb     0.0000     0.000     0.000     0.000  0.7762  0.1504  0.6123
              Bcc     0.0000     0.000     0.000     0.000 -0.0632  0.9848 -0.1617
 
              Baa    -0.0000    -0.000    -0.000    -0.000 -0.1679 -0.1408  0.9757
     5 C(13)  Bbb     0.0000     0.000     0.000     0.000 -0.4923  0.8694  0.0408
              Bcc     0.0000     0.000     0.000     0.000  0.8541  0.4735  0.2153
 
              Baa    -0.0000    -0.000    -0.000    -0.000 -0.4805  0.4652  0.7434
     6 C(13)  Bbb    -0.0000    -0.000    -0.000    -0.000  0.0409  0.8587 -0.5109
              Bcc     0.0000     0.000     0.000     0.000  0.8760  0.2151  0.4316
 
              Baa    -0.0000    -0.000    -0.000    -0.000  0.0944 -0.2190  0.9712
     7 H(1)   Bbb    -0.0000    -0.000    -0.000    -0.000  0.8669  0.4977  0.0280
              Bcc     0.0000     0.000     0.000     0.000 -0.4894  0.8393  0.2368
 
              Baa    -0.0000    -0.000    -0.000    -0.000  0.8445  0.4689  0.2586
     8 H(1)   Bbb    -0.0000    -0.000    -0.000    -0.000 -0.3456  0.8461 -0.4057
              Bcc     0.0000     0.000     0.000     0.000 -0.4091  0.2533  0.8766
 
              Baa    -0.0000    -0.000    -0.000    -0.000 -0.4169  0.8988 -0.1354
     9 C(13)  Bbb     0.0000     0.000     0.000     0.000  0.1730  0.2247  0.9590
              Bcc     0.0000     0.000     0.000     0.000  0.8923  0.3764 -0.2492
 
              Baa    -0.0000    -0.000    -0.000    -0.000  0.6744  0.6971 -0.2435
    10 H(1)   Bbb    -0.0000    -0.000    -0.000    -0.000 -0.5885  0.7066  0.3929
              Bcc     0.0000     0.000     0.000     0.000  0.4459 -0.1217  0.8868
 
              Baa    -0.0000    -0.000    -0.000    -0.000  0.7135 -0.5764  0.3983
    11 H(1)   Bbb    -0.0000    -0.000    -0.000    -0.000 -0.3998  0.1318  0.9071
              Bcc     0.0000     0.000     0.000     0.000  0.5753  0.8065  0.1364
 
              Baa    -0.0000    -0.000    -0.000    -0.000  0.9396 -0.2699  0.2105
    12 C(13)  Bbb    -0.0000    -0.000    -0.000    -0.000  0.2966  0.9490 -0.1069
              Bcc     0.0000     0.000     0.000     0.000 -0.1709  0.1629  0.9717
 
              Baa    -0.0000    -0.000    -0.000    -0.000  0.1964  0.9158 -0.3502
    13 H(1)   Bbb     0.0000     0.000     0.000     0.000  0.9803 -0.1756  0.0907
              Bcc     0.0000     0.000     0.000     0.000 -0.0215  0.3611  0.9323
 
              Baa    -0.0000    -0.000    -0.000    -0.000  0.8499 -0.2692  0.4530
    14 C(13)  Bbb     0.0000     0.000     0.000     0.000  0.3992  0.8901 -0.2200
              Bcc     0.0000     0.000     0.000     0.000 -0.3440  0.3678  0.8639
 
              Baa    -0.0000    -0.000    -0.000    -0.000 -0.3066 -0.1952  0.9316
    15 H(1)   Bbb     0.0000     0.000     0.000     0.000 -0.3033  0.9478  0.0987
              Bcc     0.0000     0.000     0.000     0.000  0.9022  0.2523  0.3498
 
              Baa    -0.0000    -0.000    -0.000    -0.000  0.7302 -0.0019 -0.6832
    16 C(13)  Bbb     0.0000     0.000     0.000     0.000  0.6803 -0.0903  0.7274
              Bcc     0.0000     0.000     0.000     0.000  0.0631  0.9959  0.0646
 
              Baa    -0.0000    -0.000    -0.000    -0.000  0.4283  0.3361  0.8388
    17 H(1)   Bbb     0.0000     0.000     0.000     0.000  0.9030 -0.1236 -0.4116
              Bcc     0.0000     0.000     0.000     0.000 -0.0346  0.9337 -0.3564
 
              Baa    -0.0000    -0.000    -0.000    -0.000 -0.6482  0.6984 -0.3034
    18 H(1)   Bbb     0.0000     0.000     0.000     0.000 -0.5357 -0.1350  0.8336
              Bcc     0.0000     0.000     0.000     0.000  0.5412  0.7029  0.4616
 
              Baa    -0.0000    -0.000    -0.000    -0.000 -0.2294  0.9732  0.0177
    19 C(13)  Bbb    -0.0000    -0.000    -0.000    -0.000  0.9631  0.2296 -0.1407
              Bcc     0.0000     0.000     0.000     0.000  0.1410  0.0153  0.9899
 
              Baa    -0.0000    -0.000    -0.000    -0.000 -0.3047  0.9294  0.2081
    20 H(1)   Bbb    -0.0000    -0.000    -0.000    -0.000  0.8487  0.3641 -0.3836
              Bcc     0.0000     0.000     0.000     0.000  0.4323 -0.0597  0.8997
 
              Baa    -0.0000    -0.000    -0.000    -0.000  0.1478  0.0772  0.9860
    21 C(13)  Bbb     0.0000     0.000     0.000     0.000  0.9684  0.1913 -0.1601
              Bcc     0.0000     0.000     0.000     0.000 -0.2010  0.9785 -0.0465
 
              Baa    -0.0000    -0.000    -0.000    -0.000  0.4144  0.3251  0.8501
    22 H(1)   Bbb     0.0000     0.000     0.000     0.000  0.7539  0.4006 -0.5207
              Bcc     0.0000     0.000     0.000     0.000 -0.5098  0.8566 -0.0791
 
              Baa    -0.0000    -0.000    -0.000    -0.000  0.9090  0.3842 -0.1616
    23 C(13)  Bbb    -0.0000    -0.000    -0.000    -0.000  0.0998  0.1757  0.9794
              Bcc     0.0000     0.000     0.000     0.000 -0.4046  0.9064 -0.1214
 
              Baa    -0.0000    -0.000    -0.000    -0.000  0.5399  0.8307  0.1360
    24 H(1)   Bbb     0.0000     0.000     0.000     0.000 -0.5736  0.2448  0.7817
              Bcc     0.0000     0.000     0.000     0.000  0.6161 -0.5000  0.6086
 
              Baa    -0.0000    -0.000    -0.000    -0.000  0.4709 -0.1423  0.8706
    25 H(1)   Bbb     0.0000     0.000     0.000     0.000 -0.4673  0.7969  0.3829
              Bcc     0.0000     0.000     0.000     0.000  0.7483  0.5872 -0.3088
 
              Baa    -0.0000    -0.000    -0.000    -0.000  0.0532  0.9965  0.0650
    26 C(13)  Bbb    -0.0000    -0.000    -0.000    -0.000  0.6801 -0.0838  0.7284
              Bcc     0.0000     0.000     0.000     0.000  0.7312  0.0054 -0.6821
 
              Baa    -0.0000    -0.000    -0.000    -0.000  0.3133  0.5638  0.7641
    27 H(1)   Bbb    -0.0000    -0.000    -0.000    -0.000  0.7543  0.3411 -0.5610
              Bcc     0.0000     0.000     0.000     0.000 -0.5770  0.7522 -0.3184
 
              Baa    -0.0000    -0.000    -0.000    -0.000 -0.6509  0.7592 -0.0023
    28 H(1)   Bbb    -0.0000    -0.000    -0.000    -0.000 -0.5968 -0.5098  0.6196
              Bcc     0.0000     0.000     0.000     0.000  0.4692  0.4047  0.7849
 

 ---------------------------------------------------------------------------------

 No NMR shielding tensors so no spin-rotation constants.
 Leave Link  601 at Tue Aug  4 02:39:28 2020, MaxMem=  6442450944 cpu:               7.9 elap:               0.4
 (Enter /scratch/scicomp/CentOS/7.3.1611/Haswell/software/Gaussian/g16/l9999.exe)
 1\1\GINC-ATLAS-205\SP\UwB97XD\def2TZVP\C12H16\BOCHEN\04-Aug-2020\0\\#p
  uwb97xd guess=mix def2tzvp # scrf=(iefpcm,solvent=Cyclohexane,read) n
 osym 6d 10f\\endo-2 xp-pcm for eta=3\\0,1\C,0,-3.127568,-0.441485,0.26
 3433\C,0,-0.731288,-0.250831,-1.236755\H,0,-4.070209,-0.533386,0.79050
 5\H,0,0.219568,-0.168512,-1.748484\C,0,1.167775,1.425763,0.792854\C,0,
 0.731288,0.250831,1.236755\H,0,0.574947,2.322303,0.929282\H,0,-0.21956
 8,0.168512,1.748484\C,0,1.564621,-0.992103,1.115813\H,0,2.097096,-1.12
 3993,2.066407\H,0,0.92006,-1.865,1.00856\C,0,2.457254,1.530153,0.10966
 2\H,0,2.856885,2.515574,-0.098107\C,0,3.127568,0.441485,-0.263433\H,0,
 4.070209,0.533386,-0.790505\C,0,2.575144,-0.939221,-0.035211\H,0,2.106
 401,-1.27978,-0.966682\H,0,3.387766,-1.642218,0.15785\C,0,-1.167775,-1
 .425763,-0.792854\H,0,-0.574947,-2.322303,-0.929282\C,0,-2.457254,-1.5
 30153,-0.109662\H,0,-2.856885,-2.515574,0.098107\C,0,-1.564621,0.99210
 3,-1.115813\H,0,-0.92006,1.865,-1.00856\H,0,-2.097096,1.123993,-2.0664
 07\C,0,-2.575144,0.939221,0.035211\H,0,-3.387766,1.642218,-0.15785\H,0
 ,-2.106402,1.27978,0.966682\\Version=ES64L-G16RevB.01\HF=-466.8089725\
 S2=0.\S2-1=0.\S2A=0.\RMSD=2.999e-09\Dipole=0.0004237,-0.0023806,-0.002
 4868\Quadrupole=0.7338333,2.3166783,-3.0505117,-2.5079529,-2.7745093,-
 1.2831155\PG=CI [X(C12H16)]\\@


 IT IS BY EATING THE LIGHT OF A STAR THAT WE EXIST, 
 IN THE FINAL ANALYSIS, 
 JUST AS IT IS BY PERCEIVING THE LIGHT OF STARS
 THAT WE DEFINE THE WORLD AROUND US.

                                    -- GILBERT GROSVENOR
 Job cpu time:       0 days  2 hours 13 minutes  7.0 seconds.
 Elapsed time:       0 days  0 hours  5 minutes 35.9 seconds.
 File lengths (MBytes):  RWF=    628 Int=      0 D2E=      0 Chk=     24 Scr=      1
 Normal termination of Gaussian 16 at Tue Aug  4 02:39:29 2020.
