 Entering Gaussian System, Link 0=g16
 Input=meso-TS_19_2_xp-Vc.com
 Output=meso-TS_19_2_xp-Vc.log
 Initial command:
 /scratch/scicomp/CentOS/7.3.1611/Haswell/software/Gaussian/g16/l1.exe "/scratch/bochen/cyclohexadiene-dimerization/wb97xd-def2tzvp/xp-pcm/meso/Gau-97170.inp" -scrdir="/scratch/bochen/cyclohexadiene-dimerization/wb97xd-def2tzvp/xp-pcm/meso/"
 Entering Link 1 = /scratch/scicomp/CentOS/7.3.1611/Haswell/software/Gaussian/g16/l1.exe PID=     97171.
  
 Copyright (c) 1988-2017, Gaussian, Inc.  All Rights Reserved.
  
 This is part of the Gaussian(R) 16 program.  It is based on
 the Gaussian(R) 09 system (copyright 2009, Gaussian, Inc.),
 the Gaussian(R) 03 system (copyright 2003, Gaussian, Inc.),
 the Gaussian(R) 98 system (copyright 1998, Gaussian, Inc.),
 the Gaussian(R) 94 system (copyright 1995, Gaussian, Inc.),
 the Gaussian 92(TM) system (copyright 1992, Gaussian, Inc.),
 the Gaussian 90(TM) system (copyright 1990, Gaussian, Inc.),
 the Gaussian 88(TM) system (copyright 1988, Gaussian, Inc.),
 the Gaussian 86(TM) system (copyright 1986, Carnegie Mellon
 University), and the Gaussian 82(TM) system (copyright 1983,
 Carnegie Mellon University). Gaussian is a federally registered
 trademark of Gaussian, Inc.
  
 This software contains proprietary and confidential information,
 including trade secrets, belonging to Gaussian, Inc.
  
 This software is provided under written license and may be
 used, copied, transmitted, or stored only in accord with that
 written license.
  
 The following legend is applicable only to US Government
 contracts under FAR:
  
                    RESTRICTED RIGHTS LEGEND
  
 Use, reproduction and disclosure by the US Government is
 subject to restrictions as set forth in subparagraphs (a)
 and (c) of the Commercial Computer Software - Restricted
 Rights clause in FAR 52.227-19.
  
 Gaussian, Inc.
 340 Quinnipiac St., Bldg. 40, Wallingford CT 06492
  
  
 ---------------------------------------------------------------
 Warning -- This program may not be used in any manner that
 competes with the business of Gaussian, Inc. or will provide
 assistance to any competitor of Gaussian, Inc.  The licensee
 of this program is prohibited from giving any competitor of
 Gaussian, Inc. access to this program.  By using this program,
 the user acknowledges that Gaussian, Inc. is engaged in the
 business of creating and licensing software in the field of
 computational chemistry and represents and warrants to the
 licensee that it is not a competitor of Gaussian, Inc. and that
 it will not use this program in any manner prohibited above.
 ---------------------------------------------------------------
  

 Cite this work as:
 Gaussian 16, Revision B.01,
 M. J. Frisch, G. W. Trucks, H. B. Schlegel, G. E. Scuseria, 
 M. A. Robb, J. R. Cheeseman, G. Scalmani, V. Barone, 
 G. A. Petersson, H. Nakatsuji, X. Li, M. Caricato, A. V. Marenich, 
 J. Bloino, B. G. Janesko, R. Gomperts, B. Mennucci, H. P. Hratchian, 
 J. V. Ortiz, A. F. Izmaylov, J. L. Sonnenberg, D. Williams-Young, 
 F. Ding, F. Lipparini, F. Egidi, J. Goings, B. Peng, A. Petrone, 
 T. Henderson, D. Ranasinghe, V. G. Zakrzewski, J. Gao, N. Rega, 
 G. Zheng, W. Liang, M. Hada, M. Ehara, K. Toyota, R. Fukuda, 
 J. Hasegawa, M. Ishida, T. Nakajima, Y. Honda, O. Kitao, H. Nakai, 
 T. Vreven, K. Throssell, J. A. Montgomery, Jr., J. E. Peralta, 
 F. Ogliaro, M. J. Bearpark, J. J. Heyd, E. N. Brothers, K. N. Kudin, 
 V. N. Staroverov, T. A. Keith, R. Kobayashi, J. Normand, 
 K. Raghavachari, A. P. Rendell, J. C. Burant, S. S. Iyengar, 
 J. Tomasi, M. Cossi, J. M. Millam, M. Klene, C. Adamo, R. Cammi, 
 J. W. Ochterski, R. L. Martin, K. Morokuma, O. Farkas, 
 J. B. Foresman, and D. J. Fox, Gaussian, Inc., Wallingford CT, 2016.
 
 ******************************************
 Gaussian 16:  ES64L-G16RevB.01 20-Dec-2017
                 3-Aug-2020 
 ******************************************
 %chk=meso-TS_19_2_xp-12.chk
 %nproc=24
 Will use up to   24 processors via shared memory.
 %mem=48GB
 ----------------------------------------------------------------------
 #p uwb97xd guess=mix def2tzvp # scrf=(iefpcm,solvent=Cyclohexane,read)
  nosym guess=only pop=none
 ----------------------------------------------------------------------
 1/38=1,40=2,172=1/1;
 2/12=2,15=1,17=6,18=5,40=1/2;
 3/5=44,7=101,11=2,25=1,30=1,70=2203,72=17,74=-58,89=1,116=2/1,2;
 4/13=-1/1;
 99/5=2/99;
 Leave Link    1 at Mon Aug  3 17:27:37 2020, MaxMem=  6442450944 cpu:               1.5 elap:               0.1
 (Enter /scratch/scicomp/CentOS/7.3.1611/Haswell/software/Gaussian/g16/l101.exe)
 -----------------------
 endo-2 xp-pcm for eta=3
 -----------------------
 Symbolic Z-matrix:
 Charge =  0 Multiplicity = 1
 6                    -3.12085  -0.43757   0.24798 
 6                    -0.5959   -0.21339  -1.01198 
 1                    -4.0846   -0.54889   0.73123 
 1                     0.3695   -0.12151  -1.48923 
 6                     1.09579   1.40912   0.70012 
 6                     0.5959    0.21339   1.01198 
 1                     0.51347   2.31007   0.84529 
 1                    -0.3695    0.12151   1.48923 
 6                     1.47806  -1.00029   1.00423 
 1                     1.94041  -1.02809   1.9989 
 1                     0.89595  -1.91578   0.91528 
 6                     2.42365   1.51698   0.1101 
 1                     2.83206   2.50539  -0.06421 
 6                     3.12085   0.43757  -0.24798 
 1                     4.0846    0.54889  -0.73123 
 6                     2.59085  -0.95596  -0.04591 
 1                     2.24322  -1.34924  -1.00924 
 1                     3.40078  -1.62071   0.26185 
 6                    -1.09579  -1.40912  -0.70012 
 1                    -0.51347  -2.31007  -0.84529 
 6                    -2.42365  -1.51698  -0.1101 
 1                    -2.83206  -2.50539   0.06421 
 6                    -1.47806   1.00029  -1.00423 
 1                    -0.89595   1.91578  -0.91528 
 1                    -1.94041   1.02809  -1.9989 
 6                    -2.59085   0.95596   0.04591 
 1                    -3.40078   1.62071  -0.26186 
 1                    -2.24322   1.34924   1.00924 
 
 ITRead=  0  0  0  0  0  0  0  0  0  0  0  0  0  0  0  0  0  0  0  0
 ITRead=  0  0  0  0  0  0  0  0
 MicOpt= -1 -1 -1 -1 -1 -1 -1 -1 -1 -1 -1 -1 -1 -1 -1 -1 -1 -1 -1 -1
 MicOpt= -1 -1 -1 -1 -1 -1 -1 -1
 NAtoms=     28 NQM=       28 NQMF=       0 NMMI=      0 NMMIF=      0
                NMic=       0 NMicF=      0.
                    Isotopes and Nuclear Properties:
 (Nuclear quadrupole moments (NQMom) in fm**2, nuclear magnetic moments (NMagM)
  in nuclear magnetons)

  Atom         1           2           3           4           5           6           7           8           9          10
 IAtWgt=          12          12           1           1          12          12           1           1          12           1
 AtmWgt=  12.0000000  12.0000000   1.0078250   1.0078250  12.0000000  12.0000000   1.0078250   1.0078250  12.0000000   1.0078250
 NucSpn=           0           0           1           1           0           0           1           1           0           1
 AtZEff=  -0.0000000  -0.0000000  -0.0000000  -0.0000000  -0.0000000  -0.0000000  -0.0000000  -0.0000000  -0.0000000  -0.0000000
 NQMom=    0.0000000   0.0000000   0.0000000   0.0000000   0.0000000   0.0000000   0.0000000   0.0000000   0.0000000   0.0000000
 NMagM=    0.0000000   0.0000000   2.7928460   2.7928460   0.0000000   0.0000000   2.7928460   2.7928460   0.0000000   2.7928460
 AtZNuc=   6.0000000   6.0000000   1.0000000   1.0000000   6.0000000   6.0000000   1.0000000   1.0000000   6.0000000   1.0000000

  Atom        11          12          13          14          15          16          17          18          19          20
 IAtWgt=           1          12           1          12           1          12           1           1          12           1
 AtmWgt=   1.0078250  12.0000000   1.0078250  12.0000000   1.0078250  12.0000000   1.0078250   1.0078250  12.0000000   1.0078250
 NucSpn=           1           0           1           0           1           0           1           1           0           1
 AtZEff=  -0.0000000  -0.0000000  -0.0000000  -0.0000000  -0.0000000  -0.0000000  -0.0000000  -0.0000000  -0.0000000  -0.0000000
 NQMom=    0.0000000   0.0000000   0.0000000   0.0000000   0.0000000   0.0000000   0.0000000   0.0000000   0.0000000   0.0000000
 NMagM=    2.7928460   0.0000000   2.7928460   0.0000000   2.7928460   0.0000000   2.7928460   2.7928460   0.0000000   2.7928460
 AtZNuc=   1.0000000   6.0000000   1.0000000   6.0000000   1.0000000   6.0000000   1.0000000   1.0000000   6.0000000   1.0000000

  Atom        21          22          23          24          25          26          27          28
 IAtWgt=          12           1          12           1           1          12           1           1
 AtmWgt=  12.0000000   1.0078250  12.0000000   1.0078250   1.0078250  12.0000000   1.0078250   1.0078250
 NucSpn=           0           1           0           1           1           0           1           1
 AtZEff=  -0.0000000  -0.0000000  -0.0000000  -0.0000000  -0.0000000  -0.0000000  -0.0000000  -0.0000000
 NQMom=    0.0000000   0.0000000   0.0000000   0.0000000   0.0000000   0.0000000   0.0000000   0.0000000
 NMagM=    0.0000000   2.7928460   0.0000000   2.7928460   2.7928460   0.0000000   2.7928460   2.7928460
 AtZNuc=   6.0000000   1.0000000   6.0000000   1.0000000   1.0000000   6.0000000   1.0000000   1.0000000
 Leave Link  101 at Mon Aug  3 17:27:37 2020, MaxMem=  6442450944 cpu:               2.4 elap:               0.1
 (Enter /scratch/scicomp/CentOS/7.3.1611/Haswell/software/Gaussian/g16/l202.exe)
                          Input orientation:                          
 ---------------------------------------------------------------------
 Center     Atomic      Atomic             Coordinates (Angstroms)
 Number     Number       Type             X           Y           Z
 ---------------------------------------------------------------------
      1          6           0       -3.120849   -0.437571    0.247983
      2          6           0       -0.595896   -0.213392   -1.011977
      3          1           0       -4.084599   -0.548890    0.731234
      4          1           0        0.369499   -0.121508   -1.489233
      5          6           0        1.095787    1.409118    0.700116
      6          6           0        0.595896    0.213392    1.011977
      7          1           0        0.513469    2.310071    0.845290
      8          1           0       -0.369499    0.121508    1.489233
      9          6           0        1.478063   -1.000287    1.004227
     10          1           0        1.940410   -1.028087    1.998902
     11          1           0        0.895946   -1.915783    0.915280
     12          6           0        2.423651    1.516981    0.110100
     13          1           0        2.832064    2.505394   -0.064213
     14          6           0        3.120849    0.437571   -0.247983
     15          1           0        4.084599    0.548890   -0.731234
     16          6           0        2.590846   -0.955955   -0.045910
     17          1           0        2.243218   -1.349244   -1.009243
     18          1           0        3.400776   -1.620708    0.261854
     19          6           0       -1.095787   -1.409118   -0.700116
     20          1           0       -0.513469   -2.310071   -0.845290
     21          6           0       -2.423651   -1.516981   -0.110100
     22          1           0       -2.832064   -2.505394    0.064213
     23          6           0       -1.478063    1.000287   -1.004227
     24          1           0       -0.895946    1.915783   -0.915280
     25          1           0       -1.940410    1.028087   -1.998902
     26          6           0       -2.590846    0.955955    0.045910
     27          1           0       -3.400776    1.620708   -0.261855
     28          1           0       -2.243218    1.349244    1.009243
 ---------------------------------------------------------------------
                    Distance matrix (angstroms):
                    1          2          3          4          5
     1  C    0.000000
     2  C    2.830750   0.000000
     3  H    1.083853   3.914383   0.000000
     4  H    3.911565   1.080835   4.995210   0.000000
     5  C    4.625441   2.902687   5.538155   2.768313   0.000000
     6  C    3.849887   2.387237   4.750466   2.533666   1.333007
     7  H    4.595060   3.323853   5.415616   3.373915   1.082537
     8  H    3.069723   2.533666   3.850450   3.078382   2.104212
     9  C    4.694523   2.997597   5.587620   2.866794   2.458424
    10  H    5.388021   4.020195   6.175544   3.931505   2.887941
    11  H    4.331863   2.972885   5.167988   3.046022   3.337843
    12  C    5.880541   3.656626   6.856453   3.076045   1.457044
    13  H    6.647983   4.476713   7.602737   3.872405   2.191045
    14  C    6.322235   3.849887   7.338287   3.069723   2.437965
    15  H    7.338287   4.750466   8.371364   3.850450   3.423704
    16  C    5.742696   3.411746   6.732846   2.777385   2.895743
    17  H    5.584351   3.057897   6.611437   2.290971   3.441957
    18  H    6.628092   4.424542   7.576275   3.808221   3.832087
    19  C    2.437965   1.333007   3.423704   2.104212   3.834853
    20  H    3.391155   2.104909   4.282541   2.446243   4.337090
    21  C    1.333954   2.419383   2.098521   3.413362   4.648112
    22  H    2.095963   3.378151   2.416954   4.283236   5.581737
    23  C    2.516786   1.500432   3.493681   2.215207   3.113942
    24  H    3.441170   2.152386   4.353519   2.466035   2.614042
    25  H    2.930884   2.079185   3.812879   2.630021   4.080242
    26  C    1.504544   2.542897   2.228346   3.504459   3.771552
    27  H    2.138880   3.434233   2.482135   4.330906   4.603177
    28  H    2.131305   3.039874   2.659114   3.902792   3.353819
                    6          7          8          9         10
     6  C    0.000000
     7  H    2.104909   0.000000
     8  H    1.080835   2.446243   0.000000
     9  C    1.500432   3.451691   2.215207   0.000000
    10  H    2.079185   3.809236   2.630021   1.097231   0.000000
    11  H    2.152386   4.243705   2.466035   1.088533   1.747325
    12  C    2.419383   2.195061   3.413362   2.833767   3.206005
    13  H    3.378151   2.498245   4.283236   3.907004   4.187718
    14  C    2.830750   3.391155   3.911565   2.516786   2.930884
    15  H    3.914383   4.282541   4.995210   3.493681   3.812879
    16  C    2.542897   3.971984   3.504459   1.530699   2.146981
    17  H    3.039874   4.452180   3.902792   2.182039   3.040357
    18  H    3.434233   4.912022   4.330906   2.152409   2.345465
    19  C    2.902687   4.337090   2.768313   3.113942   4.080242
    20  H    3.323853   5.025771   3.373915   3.017026   3.969185
    21  C    3.656626   4.917903   3.076045   4.090485   4.871543
    22  H    4.476713   5.915351   3.872405   4.661134   5.357422
    23  C    2.997597   3.017026   2.866794   4.095713   4.981871
    24  H    2.972885   2.289437   3.046022   4.221835   5.020333
    25  H    4.020195   3.969185   3.931505   4.981871   5.938944
    26  C    3.411746   3.479858   2.777385   4.615330   5.318165
    27  H    4.424542   4.125810   3.808221   5.681166   6.376159
    28  H    3.057897   2.923934   2.290971   4.400938   4.912624
                   11         12         13         14         15
    11  H    0.000000
    12  C    3.842664   0.000000
    13  H    4.924913   1.083580   0.000000
    14  C    3.441170   1.333954   2.095963   0.000000
    15  H    4.353519   2.098521   2.416954   1.083853   0.000000
    16  C    2.172059   2.483487   3.469792   1.504544   2.228346
    17  H    2.416588   3.082326   4.012238   2.131305   2.659114
    18  H    2.605419   3.289817   4.177855   2.138879   2.482135
    19  C    2.614042   4.648112   5.581737   4.625441   5.538155
    20  H    2.289437   4.917903   5.915351   4.595060   5.415616
    21  C    3.497166   5.722740   6.618470   5.880541   6.856453
    22  H    3.869110   6.618470   7.563520   6.647983   7.602737
    23  C    4.221835   4.090485   4.661134   4.694523   5.587620
    24  H    4.608983   3.497166   3.869110   4.331863   5.167988
    25  H    5.020333   4.871543   5.357422   5.388021   6.175544
    26  C    4.600044   5.046192   5.640996   5.742696   6.732846
    27  H    5.688078   5.837213   6.298415   6.628092   7.576275
    28  H    4.530296   4.755656   5.314836   5.584351   6.611437
                   16         17         18         19         20
    16  C    0.000000
    17  H    1.097056   0.000000
    18  H    1.092063   1.740494   0.000000
    19  C    3.771552   3.353819   4.603177   0.000000
    20  H    3.479858   2.923934   4.125809   1.082537   0.000000
    21  C    5.046192   4.755656   5.837213   1.457044   2.195061
    22  H    5.640996   5.314836   6.298415   2.191045   2.498245
    23  C    4.615330   4.400938   5.681166   2.458424   3.451691
    24  H    4.600044   4.530296   5.688078   3.337843   4.243705
    25  H    5.318165   4.912624   6.376159   2.887941   3.809236
    26  C    5.523926   5.458522   6.525746   2.895743   3.971984
    27  H    6.525746   6.421361   7.552626   3.832087   4.912022
    28  H    5.458522   5.611081   6.421361   3.441957   4.452180
                   21         22         23         24         25
    21  C    0.000000
    22  H    1.083580   0.000000
    23  C    2.833767   3.907004   0.000000
    24  H    3.842664   4.924913   1.088533   0.000000
    25  H    3.206005   4.187718   1.097231   1.747325   0.000000
    26  C    2.483487   3.469792   1.530699   2.172059   2.146981
    27  H    3.289817   4.177855   2.152409   2.605419   2.345464
    28  H    3.082326   4.012238   2.182039   2.416588   3.040357
                   26         27         28
    26  C    0.000000
    27  H    1.092063   0.000000
    28  H    1.097056   1.740495   0.000000
 Symmetry turned off by external request.
 Stoichiometry    C12H16
 Framework group  CI[X(C12H16)]
 Deg. of freedom    39
 Full point group                 CI      NOp   2
 Rotational constants (GHZ):           1.8964116           0.6258216           0.5490889
 Leave Link  202 at Mon Aug  3 17:27:38 2020, MaxMem=  6442450944 cpu:               0.3 elap:               0.0
 (Enter /scratch/scicomp/CentOS/7.3.1611/Haswell/software/Gaussian/g16/l301.exe)
 Standard basis: def2TZVP (5D, 7F)
 Ernie: Thresh=  0.10000D-02 Tol=  0.10000D-05 Strict=F.
   468 basis functions,   740 primitive gaussians,   528 cartesian basis functions
    44 alpha electrons       44 beta electrons
       nuclear repulsion energy       688.1322141888 Hartrees.
 IExCor= 4639 DFT=T Ex+Corr=wB97XD ExCW=0 ScaHFX=  1.000000
 ScaDFX=  1.000000  1.000000  1.000000  1.000000 ScalE2=  1.000000  1.000000
 IRadAn=      5 IRanWt=     -1 IRanGd=            0 ICorTp=0 IEmpDi=121
 HFx  wShort=  0.000000 wLong=  0.200000 cFull=  0.222036 cShort=  0.000000 cLong=  0.777964
 DFx  wShort=  0.000000 wLong=  0.200000 cFull=  0.000000 cShort=  0.000000 cLong=  1.000000
 NAtoms=   28 NActive=   28 NUniq=   28 SFac= 1.00D+00 NAtFMM=   60 NAOKFM=F Big=F
 Integral buffers will be    131072 words long.
 Raffenetti 2 integral format.
 Two-electron integral symmetry is turned off.
 R6Disp:  Grimme-D2 Dispersion energy=       -0.0229652177 Hartrees.
 Nuclear repulsion after empirical dispersion term =      688.1092489711 Hartrees.
 Using the following non-standard input for PCM:
 qrep pcmdoc geomview  nodis nocav g03defaults tsare=0.075
 Warning! Using old PCM defaults because the g03defaults keyword was found.
 These settings can be overridden by following keywords.
 nsfe=28
 NVESolv=36  SolvMW=84.1595   Rsolv=2.815
 eps=2.0165 RhoS=0.7781
 --- end of non-standard input.
 Reading user-defined spheres from input:
 ISph  on   Nord    Re0     Alpha      Xe            Ye            Ze
 --- end of user-defined spheres data.
 ------------------------------------------------------------------------------
 Polarizable Continuum Model (PCM)
 =================================
 Model                : PCM.
 Atomic radii         : UA0 (Simple United Atom Topological Model).
 Polarization charges : Total charges.
 Charge compensation  : None.
 Solution method      : On-the-fly selection.
 Cavity type          : SES (Solvent Excluding Surface) (Alpha=1.000).
 Cavity algorithm     : GePol (RMin=0.200 OFac=0.890).
                        User-defined sphere list used, NSphG=   28.
                        Tesserae with average area of 0.075 Ang**2.
                        Smoothing algorithm: None.
                        Polarization charges: point-like.
                        Self-potential: constant (ISelfS= 1).
                        Self-field    : global E.n sum rule (ISelfD= 3).
 Solvent              : CycloHexane, Eps=   2.016500 Eps(inf)=   2.035188
                        RSolv=   2.815000 Ang.
 ------------------------------------------------------------------------------
 GePol: Number of generator spheres                  =      28
 GePol: Total number of spheres                      =     191
 GePol: Number of exposed spheres                    =     137 ( 71.73%)
 GePol: Number of tesserae                           =    4704
 GePol: Average area of tesserae                     =       0.05 Ang**2
 GePol: Minimum area of tessera                      =   0.10D-02 Ang**2
 GePol: Maximum area of tessera                      =    0.12395 Ang**2
 GePol: Number of small tesserae                     =       0
 GePol: Fraction of small tesserae (<1% of avg)      =       0.00%
 GePol: Total count of vertices                      =   16705
 GePol: Maximum number of vertices in a tessera      =       7
 GePol: Cavity surface area                          =    218.628 Ang**2
 GePol: Cavity volume                                =    246.882 Ang**3
 Leave Link  301 at Mon Aug  3 17:27:38 2020, MaxMem=  6442450944 cpu:               7.9 elap:               0.4
 (Enter /scratch/scicomp/CentOS/7.3.1611/Haswell/software/Gaussian/g16/l302.exe)
 NPDir=0 NMtPBC=     1 NCelOv=     1 NCel=       1 NClECP=     1 NCelD=      1
         NCelK=      1 NCelE2=     1 NClLst=     1 CellRange=     0.0.
 One-electron integrals computed using PRISM.
   1 Symmetry operations used in ECPInt.
 ECPInt:  NShTT=   19306 NPrTT=   56928 LenC2=   18510 LenP2D=   42188.
 LDataN:  DoStor=T MaxTD1= 6 Len=  172
 NBasis=   468 RedAO= T EigKep=  2.44D-05  NBF=   468
 NBsUse=   468 1.00D-06 EigRej= -1.00D+00 NBFU=   468
 Precomputing XC quadrature grid using
 IXCGrd= 4 IRadAn=           5 IRanWt=          -1 IRanGd=           0 AccXCQ= 0.00D+00.
 Generated NRdTot=       0 NPtTot=           0 NUsed=           0 NTot=          32
 NSgBfM=   526   526   526   526   526 MxSgAt=    28 MxSgA2=    28.
 Leave Link  302 at Mon Aug  3 17:27:39 2020, MaxMem=  6442450944 cpu:              11.8 elap:               0.5
 (Enter /scratch/scicomp/CentOS/7.3.1611/Haswell/software/Gaussian/g16/l401.exe)
 ExpMin= 9.52D-02 ExpMax= 1.36D+04 ExpMxC= 4.63D+02 IAcc=3 IRadAn=         5 AccDes= 0.00D+00
 Harris functional with IExCor= 4639 and IRadAn=       5 diagonalized for initial guess.
 HarFok:  IExCor= 4639 AccDes= 0.00D+00 IRadAn=         5 IDoV= 1 UseB2=F ITyADJ=14
 ICtDFT=  3500011 ScaDFX=  1.000000  1.000000  1.000000  1.000000
 FoFCou: FMM=F IPFlag=           0 FMFlag=      100000 FMFlg1=           0
         NFxFlg=           0 DoJE=T BraDBF=F KetDBF=T FulRan=T
         wScrn=  0.000000 ICntrl=       500 IOpCl=  0 I1Cent=   200000004 NGrid=           0
         NMat0=    1 NMatS0=      1 NMatT0=    0 NMatD0=    1 NMtDS0=    0 NMtDT0=    0
 Symmetry not used in FoFCou.
 Harris En= -444.612211342243    
 JPrj=0 DoOrth=F DoCkMO=T.
 Mixing orbitals, IMix= 1 IMixAn=  0 NRI=1 NE=   44 Coef=  7.07106781D-01  7.07106781D-01
 Mixing orbitals, IMix= 1 IMixAn=  0 NRI=1 NE=   44 Coef= -7.07106781D-01  7.07106781D-01
 Initial guess <Sx>= 0.0000 <Sy>= 0.0000 <Sz>= 0.0000 <S**2>= 1.0000 S= 0.6180
 Leave Link  401 at Mon Aug  3 17:27:41 2020, MaxMem=  6442450944 cpu:              47.6 elap:               2.0
 (Enter /scratch/scicomp/CentOS/7.3.1611/Haswell/software/Gaussian/g16/l9999.exe)

 This type of calculation cannot be archived.


 IF MATHEMATICALLY YOU END UP WITH THE INCORRECT ANSWER,
 TRY MULTIPLYING BY THE PAGE NUMBER.
 Job cpu time:       0 days  0 hours  1 minutes 12.5 seconds.
 Elapsed time:       0 days  0 hours  0 minutes  3.3 seconds.
 File lengths (MBytes):  RWF=    405 Int=      0 D2E=      0 Chk=      1 Scr=      1
 Normal termination of Gaussian 16 at Mon Aug  3 17:27:41 2020.
 Initial command:
 /scratch/scicomp/CentOS/7.3.1611/Haswell/software/Gaussian/g16/l1.exe "/scratch/bochen/cyclohexadiene-dimerization/wb97xd-def2tzvp/xp-pcm/meso/Gau-97170.inp" -scrdir="/scratch/bochen/cyclohexadiene-dimerization/wb97xd-def2tzvp/xp-pcm/meso/"
 Entering Link 1 = /scratch/scicomp/CentOS/7.3.1611/Haswell/software/Gaussian/g16/l1.exe PID=     97334.
  
 Copyright (c) 1988-2017, Gaussian, Inc.  All Rights Reserved.
  
 This is part of the Gaussian(R) 16 program.  It is based on
 the Gaussian(R) 09 system (copyright 2009, Gaussian, Inc.),
 the Gaussian(R) 03 system (copyright 2003, Gaussian, Inc.),
 the Gaussian(R) 98 system (copyright 1998, Gaussian, Inc.),
 the Gaussian(R) 94 system (copyright 1995, Gaussian, Inc.),
 the Gaussian 92(TM) system (copyright 1992, Gaussian, Inc.),
 the Gaussian 90(TM) system (copyright 1990, Gaussian, Inc.),
 the Gaussian 88(TM) system (copyright 1988, Gaussian, Inc.),
 the Gaussian 86(TM) system (copyright 1986, Carnegie Mellon
 University), and the Gaussian 82(TM) system (copyright 1983,
 Carnegie Mellon University). Gaussian is a federally registered
 trademark of Gaussian, Inc.
  
 This software contains proprietary and confidential information,
 including trade secrets, belonging to Gaussian, Inc.
  
 This software is provided under written license and may be
 used, copied, transmitted, or stored only in accord with that
 written license.
  
 The following legend is applicable only to US Government
 contracts under FAR:
  
                    RESTRICTED RIGHTS LEGEND
  
 Use, reproduction and disclosure by the US Government is
 subject to restrictions as set forth in subparagraphs (a)
 and (c) of the Commercial Computer Software - Restricted
 Rights clause in FAR 52.227-19.
  
 Gaussian, Inc.
 340 Quinnipiac St., Bldg. 40, Wallingford CT 06492
  
  
 ---------------------------------------------------------------
 Warning -- This program may not be used in any manner that
 competes with the business of Gaussian, Inc. or will provide
 assistance to any competitor of Gaussian, Inc.  The licensee
 of this program is prohibited from giving any competitor of
 Gaussian, Inc. access to this program.  By using this program,
 the user acknowledges that Gaussian, Inc. is engaged in the
 business of creating and licensing software in the field of
 computational chemistry and represents and warrants to the
 licensee that it is not a competitor of Gaussian, Inc. and that
 it will not use this program in any manner prohibited above.
 ---------------------------------------------------------------
  

 Cite this work as:
 Gaussian 16, Revision B.01,
 M. J. Frisch, G. W. Trucks, H. B. Schlegel, G. E. Scuseria, 
 M. A. Robb, J. R. Cheeseman, G. Scalmani, V. Barone, 
 G. A. Petersson, H. Nakatsuji, X. Li, M. Caricato, A. V. Marenich, 
 J. Bloino, B. G. Janesko, R. Gomperts, B. Mennucci, H. P. Hratchian, 
 J. V. Ortiz, A. F. Izmaylov, J. L. Sonnenberg, D. Williams-Young, 
 F. Ding, F. Lipparini, F. Egidi, J. Goings, B. Peng, A. Petrone, 
 T. Henderson, D. Ranasinghe, V. G. Zakrzewski, J. Gao, N. Rega, 
 G. Zheng, W. Liang, M. Hada, M. Ehara, K. Toyota, R. Fukuda, 
 J. Hasegawa, M. Ishida, T. Nakajima, Y. Honda, O. Kitao, H. Nakai, 
 T. Vreven, K. Throssell, J. A. Montgomery, Jr., J. E. Peralta, 
 F. Ogliaro, M. J. Bearpark, J. J. Heyd, E. N. Brothers, K. N. Kudin, 
 V. N. Staroverov, T. A. Keith, R. Kobayashi, J. Normand, 
 K. Raghavachari, A. P. Rendell, J. C. Burant, S. S. Iyengar, 
 J. Tomasi, M. Cossi, J. M. Millam, M. Klene, C. Adamo, R. Cammi, 
 J. W. Ochterski, R. L. Martin, K. Morokuma, O. Farkas, 
 J. B. Foresman, and D. J. Fox, Gaussian, Inc., Wallingford CT, 2016.
 
 ******************************************
 Gaussian 16:  ES64L-G16RevB.01 20-Dec-2017
                 3-Aug-2020 
 ******************************************
 %chk=meso-TS_19_2_xp-115.chk
 %nproc=24
 Will use up to   24 processors via shared memory.
 %mem=48GB
 ----------------------------------------------------------------------
 #p uwb97xd guess=mix def2tzvp # scrf=(iefpcm,solvent=Cyclohexane,read)
  nosym guess=only pop=none
 ----------------------------------------------------------------------
 1/38=1,40=2,172=1/1;
 2/12=2,15=1,17=6,18=5,40=1/2;
 3/5=44,7=101,11=2,25=1,30=1,70=2203,72=17,74=-58,89=1,116=2/1,2;
 4/13=-1/1;
 99/5=2/99;
 Leave Link    1 at Mon Aug  3 17:27:41 2020, MaxMem=  6442450944 cpu:               2.3 elap:               0.1
 (Enter /scratch/scicomp/CentOS/7.3.1611/Haswell/software/Gaussian/g16/l101.exe)
 -----------------------
 endo-2 xp-pcm for eta=3
 -----------------------
 Symbolic Z-matrix:
 Charge =  0 Multiplicity = 1
 6                    -3.12085  -0.43757   0.24798 
 6                    -0.5959   -0.21339  -1.01198 
 1                    -4.0846   -0.54889   0.73123 
 1                     0.3695   -0.12151  -1.48923 
 6                     1.09579   1.40912   0.70012 
 6                     0.5959    0.21339   1.01198 
 1                     0.51347   2.31007   0.84529 
 1                    -0.3695    0.12151   1.48923 
 6                     1.47806  -1.00029   1.00423 
 1                     1.94041  -1.02809   1.9989 
 1                     0.89595  -1.91578   0.91528 
 6                     2.42365   1.51698   0.1101 
 1                     2.83206   2.50539  -0.06421 
 6                     3.12085   0.43757  -0.24798 
 1                     4.0846    0.54889  -0.73123 
 6                     2.59085  -0.95596  -0.04591 
 1                     2.24322  -1.34924  -1.00924 
 1                     3.40078  -1.62071   0.26185 
 6                    -1.09579  -1.40912  -0.70012 
 1                    -0.51347  -2.31007  -0.84529 
 6                    -2.42365  -1.51698  -0.1101 
 1                    -2.83206  -2.50539   0.06421 
 6                    -1.47806   1.00029  -1.00423 
 1                    -0.89595   1.91578  -0.91528 
 1                    -1.94041   1.02809  -1.9989 
 6                    -2.59085   0.95596   0.04591 
 1                    -3.40078   1.62071  -0.26186 
 1                    -2.24322   1.34924   1.00924 
 
 ITRead=  0  0  0  0  0  0  0  0  0  0  0  0  0  0  0  0  0  0  0  0
 ITRead=  0  0  0  0  0  0  0  0
 MicOpt= -1 -1 -1 -1 -1 -1 -1 -1 -1 -1 -1 -1 -1 -1 -1 -1 -1 -1 -1 -1
 MicOpt= -1 -1 -1 -1 -1 -1 -1 -1
 NAtoms=     28 NQM=       28 NQMF=       0 NMMI=      0 NMMIF=      0
                NMic=       0 NMicF=      0.
                    Isotopes and Nuclear Properties:
 (Nuclear quadrupole moments (NQMom) in fm**2, nuclear magnetic moments (NMagM)
  in nuclear magnetons)

  Atom         1           2           3           4           5           6           7           8           9          10
 IAtWgt=          12          12           1           1          12          12           1           1          12           1
 AtmWgt=  12.0000000  12.0000000   1.0078250   1.0078250  12.0000000  12.0000000   1.0078250   1.0078250  12.0000000   1.0078250
 NucSpn=           0           0           1           1           0           0           1           1           0           1
 AtZEff=  -0.0000000  -0.0000000  -0.0000000  -0.0000000  -0.0000000  -0.0000000  -0.0000000  -0.0000000  -0.0000000  -0.0000000
 NQMom=    0.0000000   0.0000000   0.0000000   0.0000000   0.0000000   0.0000000   0.0000000   0.0000000   0.0000000   0.0000000
 NMagM=    0.0000000   0.0000000   2.7928460   2.7928460   0.0000000   0.0000000   2.7928460   2.7928460   0.0000000   2.7928460
 AtZNuc=   6.0000000   6.0000000   1.0000000   1.0000000   6.0000000   6.0000000   1.0000000   1.0000000   6.0000000   1.0000000

  Atom        11          12          13          14          15          16          17          18          19          20
 IAtWgt=           1          12           1          12           1          12           1           1          12           1
 AtmWgt=   1.0078250  12.0000000   1.0078250  12.0000000   1.0078250  12.0000000   1.0078250   1.0078250  12.0000000   1.0078250
 NucSpn=           1           0           1           0           1           0           1           1           0           1
 AtZEff=  -0.0000000  -0.0000000  -0.0000000  -0.0000000  -0.0000000  -0.0000000  -0.0000000  -0.0000000  -0.0000000  -0.0000000
 NQMom=    0.0000000   0.0000000   0.0000000   0.0000000   0.0000000   0.0000000   0.0000000   0.0000000   0.0000000   0.0000000
 NMagM=    2.7928460   0.0000000   2.7928460   0.0000000   2.7928460   0.0000000   2.7928460   2.7928460   0.0000000   2.7928460
 AtZNuc=   1.0000000   6.0000000   1.0000000   6.0000000   1.0000000   6.0000000   1.0000000   1.0000000   6.0000000   1.0000000

  Atom        21          22          23          24          25          26          27          28
 IAtWgt=          12           1          12           1           1          12           1           1
 AtmWgt=  12.0000000   1.0078250  12.0000000   1.0078250   1.0078250  12.0000000   1.0078250   1.0078250
 NucSpn=           0           1           0           1           1           0           1           1
 AtZEff=  -0.0000000  -0.0000000  -0.0000000  -0.0000000  -0.0000000  -0.0000000  -0.0000000  -0.0000000
 NQMom=    0.0000000   0.0000000   0.0000000   0.0000000   0.0000000   0.0000000   0.0000000   0.0000000
 NMagM=    0.0000000   2.7928460   0.0000000   2.7928460   2.7928460   0.0000000   2.7928460   2.7928460
 AtZNuc=   6.0000000   1.0000000   6.0000000   1.0000000   1.0000000   6.0000000   1.0000000   1.0000000
 Leave Link  101 at Mon Aug  3 17:27:41 2020, MaxMem=  6442450944 cpu:               2.4 elap:               0.1
 (Enter /scratch/scicomp/CentOS/7.3.1611/Haswell/software/Gaussian/g16/l202.exe)
                          Input orientation:                          
 ---------------------------------------------------------------------
 Center     Atomic      Atomic             Coordinates (Angstroms)
 Number     Number       Type             X           Y           Z
 ---------------------------------------------------------------------
      1          6           0       -3.120849   -0.437571    0.247983
      2          6           0       -0.595896   -0.213392   -1.011977
      3          1           0       -4.084599   -0.548890    0.731234
      4          1           0        0.369499   -0.121508   -1.489233
      5          6           0        1.095787    1.409118    0.700116
      6          6           0        0.595896    0.213392    1.011977
      7          1           0        0.513469    2.310071    0.845290
      8          1           0       -0.369499    0.121508    1.489233
      9          6           0        1.478063   -1.000287    1.004227
     10          1           0        1.940410   -1.028087    1.998902
     11          1           0        0.895946   -1.915783    0.915280
     12          6           0        2.423651    1.516981    0.110100
     13          1           0        2.832064    2.505394   -0.064213
     14          6           0        3.120849    0.437571   -0.247983
     15          1           0        4.084599    0.548890   -0.731234
     16          6           0        2.590846   -0.955955   -0.045910
     17          1           0        2.243218   -1.349244   -1.009243
     18          1           0        3.400776   -1.620708    0.261854
     19          6           0       -1.095787   -1.409118   -0.700116
     20          1           0       -0.513469   -2.310071   -0.845290
     21          6           0       -2.423651   -1.516981   -0.110100
     22          1           0       -2.832064   -2.505394    0.064213
     23          6           0       -1.478063    1.000287   -1.004227
     24          1           0       -0.895946    1.915783   -0.915280
     25          1           0       -1.940410    1.028087   -1.998902
     26          6           0       -2.590846    0.955955    0.045910
     27          1           0       -3.400776    1.620708   -0.261855
     28          1           0       -2.243218    1.349244    1.009243
 ---------------------------------------------------------------------
                    Distance matrix (angstroms):
                    1          2          3          4          5
     1  C    0.000000
     2  C    2.830750   0.000000
     3  H    1.083853   3.914383   0.000000
     4  H    3.911565   1.080835   4.995210   0.000000
     5  C    4.625441   2.902687   5.538155   2.768313   0.000000
     6  C    3.849887   2.387237   4.750466   2.533666   1.333007
     7  H    4.595060   3.323853   5.415616   3.373915   1.082537
     8  H    3.069723   2.533666   3.850450   3.078382   2.104212
     9  C    4.694523   2.997597   5.587620   2.866794   2.458424
    10  H    5.388021   4.020195   6.175544   3.931505   2.887941
    11  H    4.331863   2.972885   5.167988   3.046022   3.337843
    12  C    5.880541   3.656626   6.856453   3.076045   1.457044
    13  H    6.647983   4.476713   7.602737   3.872405   2.191045
    14  C    6.322235   3.849887   7.338287   3.069723   2.437965
    15  H    7.338287   4.750466   8.371364   3.850450   3.423704
    16  C    5.742696   3.411746   6.732846   2.777385   2.895743
    17  H    5.584351   3.057897   6.611437   2.290971   3.441957
    18  H    6.628092   4.424542   7.576275   3.808221   3.832087
    19  C    2.437965   1.333007   3.423704   2.104212   3.834853
    20  H    3.391155   2.104909   4.282541   2.446243   4.337090
    21  C    1.333954   2.419383   2.098521   3.413362   4.648112
    22  H    2.095963   3.378151   2.416954   4.283236   5.581737
    23  C    2.516786   1.500432   3.493681   2.215207   3.113942
    24  H    3.441170   2.152386   4.353519   2.466035   2.614042
    25  H    2.930884   2.079185   3.812879   2.630021   4.080242
    26  C    1.504544   2.542897   2.228346   3.504459   3.771552
    27  H    2.138880   3.434233   2.482135   4.330906   4.603177
    28  H    2.131305   3.039874   2.659114   3.902792   3.353819
                    6          7          8          9         10
     6  C    0.000000
     7  H    2.104909   0.000000
     8  H    1.080835   2.446243   0.000000
     9  C    1.500432   3.451691   2.215207   0.000000
    10  H    2.079185   3.809236   2.630021   1.097231   0.000000
    11  H    2.152386   4.243705   2.466035   1.088533   1.747325
    12  C    2.419383   2.195061   3.413362   2.833767   3.206005
    13  H    3.378151   2.498245   4.283236   3.907004   4.187718
    14  C    2.830750   3.391155   3.911565   2.516786   2.930884
    15  H    3.914383   4.282541   4.995210   3.493681   3.812879
    16  C    2.542897   3.971984   3.504459   1.530699   2.146981
    17  H    3.039874   4.452180   3.902792   2.182039   3.040357
    18  H    3.434233   4.912022   4.330906   2.152409   2.345465
    19  C    2.902687   4.337090   2.768313   3.113942   4.080242
    20  H    3.323853   5.025771   3.373915   3.017026   3.969185
    21  C    3.656626   4.917903   3.076045   4.090485   4.871543
    22  H    4.476713   5.915351   3.872405   4.661134   5.357422
    23  C    2.997597   3.017026   2.866794   4.095713   4.981871
    24  H    2.972885   2.289437   3.046022   4.221835   5.020333
    25  H    4.020195   3.969185   3.931505   4.981871   5.938944
    26  C    3.411746   3.479858   2.777385   4.615330   5.318165
    27  H    4.424542   4.125810   3.808221   5.681166   6.376159
    28  H    3.057897   2.923934   2.290971   4.400938   4.912624
                   11         12         13         14         15
    11  H    0.000000
    12  C    3.842664   0.000000
    13  H    4.924913   1.083580   0.000000
    14  C    3.441170   1.333954   2.095963   0.000000
    15  H    4.353519   2.098521   2.416954   1.083853   0.000000
    16  C    2.172059   2.483487   3.469792   1.504544   2.228346
    17  H    2.416588   3.082326   4.012238   2.131305   2.659114
    18  H    2.605419   3.289817   4.177855   2.138879   2.482135
    19  C    2.614042   4.648112   5.581737   4.625441   5.538155
    20  H    2.289437   4.917903   5.915351   4.595060   5.415616
    21  C    3.497166   5.722740   6.618470   5.880541   6.856453
    22  H    3.869110   6.618470   7.563520   6.647983   7.602737
    23  C    4.221835   4.090485   4.661134   4.694523   5.587620
    24  H    4.608983   3.497166   3.869110   4.331863   5.167988
    25  H    5.020333   4.871543   5.357422   5.388021   6.175544
    26  C    4.600044   5.046192   5.640996   5.742696   6.732846
    27  H    5.688078   5.837213   6.298415   6.628092   7.576275
    28  H    4.530296   4.755656   5.314836   5.584351   6.611437
                   16         17         18         19         20
    16  C    0.000000
    17  H    1.097056   0.000000
    18  H    1.092063   1.740494   0.000000
    19  C    3.771552   3.353819   4.603177   0.000000
    20  H    3.479858   2.923934   4.125809   1.082537   0.000000
    21  C    5.046192   4.755656   5.837213   1.457044   2.195061
    22  H    5.640996   5.314836   6.298415   2.191045   2.498245
    23  C    4.615330   4.400938   5.681166   2.458424   3.451691
    24  H    4.600044   4.530296   5.688078   3.337843   4.243705
    25  H    5.318165   4.912624   6.376159   2.887941   3.809236
    26  C    5.523926   5.458522   6.525746   2.895743   3.971984
    27  H    6.525746   6.421361   7.552626   3.832087   4.912022
    28  H    5.458522   5.611081   6.421361   3.441957   4.452180
                   21         22         23         24         25
    21  C    0.000000
    22  H    1.083580   0.000000
    23  C    2.833767   3.907004   0.000000
    24  H    3.842664   4.924913   1.088533   0.000000
    25  H    3.206005   4.187718   1.097231   1.747325   0.000000
    26  C    2.483487   3.469792   1.530699   2.172059   2.146981
    27  H    3.289817   4.177855   2.152409   2.605419   2.345464
    28  H    3.082326   4.012238   2.182039   2.416588   3.040357
                   26         27         28
    26  C    0.000000
    27  H    1.092063   0.000000
    28  H    1.097056   1.740495   0.000000
 Symmetry turned off by external request.
 Stoichiometry    C12H16
 Framework group  CI[X(C12H16)]
 Deg. of freedom    39
 Full point group                 CI      NOp   2
 Rotational constants (GHZ):           1.8964116           0.6258216           0.5490889
 Leave Link  202 at Mon Aug  3 17:27:41 2020, MaxMem=  6442450944 cpu:               0.3 elap:               0.0
 (Enter /scratch/scicomp/CentOS/7.3.1611/Haswell/software/Gaussian/g16/l301.exe)
 Standard basis: def2TZVP (5D, 7F)
 Ernie: Thresh=  0.10000D-02 Tol=  0.10000D-05 Strict=F.
   468 basis functions,   740 primitive gaussians,   528 cartesian basis functions
    44 alpha electrons       44 beta electrons
       nuclear repulsion energy       688.1322141888 Hartrees.
 IExCor= 4639 DFT=T Ex+Corr=wB97XD ExCW=0 ScaHFX=  1.000000
 ScaDFX=  1.000000  1.000000  1.000000  1.000000 ScalE2=  1.000000  1.000000
 IRadAn=      5 IRanWt=     -1 IRanGd=            0 ICorTp=0 IEmpDi=121
 HFx  wShort=  0.000000 wLong=  0.200000 cFull=  0.222036 cShort=  0.000000 cLong=  0.777964
 DFx  wShort=  0.000000 wLong=  0.200000 cFull=  0.000000 cShort=  0.000000 cLong=  1.000000
 NAtoms=   28 NActive=   28 NUniq=   28 SFac= 1.00D+00 NAtFMM=   60 NAOKFM=F Big=F
 Integral buffers will be    131072 words long.
 Raffenetti 2 integral format.
 Two-electron integral symmetry is turned off.
 R6Disp:  Grimme-D2 Dispersion energy=       -0.0229652177 Hartrees.
 Nuclear repulsion after empirical dispersion term =      688.1092489711 Hartrees.
 Using the following non-standard input for PCM:
 qrep pcmdoc geomview  nodis nocav g03defaults tsare=0.075
 Warning! Using old PCM defaults because the g03defaults keyword was found.
 These settings can be overridden by following keywords.
 nsfe=28
 NVESolv=36  SolvMW=84.1595   Rsolv=2.815
 eps=2.0165 RhoS=0.7781
 --- end of non-standard input.
 Reading user-defined spheres from input:
 ISph  on   Nord    Re0     Alpha      Xe            Ye            Ze
 --- end of user-defined spheres data.
 ------------------------------------------------------------------------------
 Polarizable Continuum Model (PCM)
 =================================
 Model                : PCM.
 Atomic radii         : UA0 (Simple United Atom Topological Model).
 Polarization charges : Total charges.
 Charge compensation  : None.
 Solution method      : On-the-fly selection.
 Cavity type          : SES (Solvent Excluding Surface) (Alpha=1.000).
 Cavity algorithm     : GePol (RMin=0.200 OFac=0.890).
                        User-defined sphere list used, NSphG=   28.
                        Tesserae with average area of 0.075 Ang**2.
                        Smoothing algorithm: None.
                        Polarization charges: point-like.
                        Self-potential: constant (ISelfS= 1).
                        Self-field    : global E.n sum rule (ISelfD= 3).
 Solvent              : CycloHexane, Eps=   2.016500 Eps(inf)=   2.035188
                        RSolv=   2.815000 Ang.
 ------------------------------------------------------------------------------
 GePol: Number of generator spheres                  =      28
 GePol: Total number of spheres                      =     216
 GePol: Number of exposed spheres                    =     156 ( 72.22%)
 GePol: Number of tesserae                           =    4722
 GePol: Average area of tesserae                     =       0.04 Ang**2
 GePol: Minimum area of tessera                      =   0.10D-02 Ang**2
 GePol: Maximum area of tessera                      =    0.11069 Ang**2
 GePol: Number of small tesserae                     =       0
 GePol: Fraction of small tesserae (<1% of avg)      =       0.00%
 GePol: Total count of vertices                      =   16830
 GePol: Maximum number of vertices in a tessera      =       7
 GePol: Cavity surface area                          =    211.426 Ang**2
 GePol: Cavity volume                                =    232.370 Ang**3
 Leave Link  301 at Mon Aug  3 17:27:42 2020, MaxMem=  6442450944 cpu:               8.2 elap:               0.4
 (Enter /scratch/scicomp/CentOS/7.3.1611/Haswell/software/Gaussian/g16/l302.exe)
 NPDir=0 NMtPBC=     1 NCelOv=     1 NCel=       1 NClECP=     1 NCelD=      1
         NCelK=      1 NCelE2=     1 NClLst=     1 CellRange=     0.0.
 One-electron integrals computed using PRISM.
   1 Symmetry operations used in ECPInt.
 ECPInt:  NShTT=   19306 NPrTT=   56928 LenC2=   18510 LenP2D=   42188.
 LDataN:  DoStor=T MaxTD1= 6 Len=  172
 NBasis=   468 RedAO= T EigKep=  2.44D-05  NBF=   468
 NBsUse=   468 1.00D-06 EigRej= -1.00D+00 NBFU=   468
 Precomputing XC quadrature grid using
 IXCGrd= 4 IRadAn=           5 IRanWt=          -1 IRanGd=           0 AccXCQ= 0.00D+00.
 Generated NRdTot=       0 NPtTot=           0 NUsed=           0 NTot=          32
 NSgBfM=   526   526   526   526   526 MxSgAt=    28 MxSgA2=    28.
 Leave Link  302 at Mon Aug  3 17:27:42 2020, MaxMem=  6442450944 cpu:              11.7 elap:               0.5
 (Enter /scratch/scicomp/CentOS/7.3.1611/Haswell/software/Gaussian/g16/l401.exe)
 ExpMin= 9.52D-02 ExpMax= 1.36D+04 ExpMxC= 4.63D+02 IAcc=3 IRadAn=         5 AccDes= 0.00D+00
 Harris functional with IExCor= 4639 and IRadAn=       5 diagonalized for initial guess.
 HarFok:  IExCor= 4639 AccDes= 0.00D+00 IRadAn=         5 IDoV= 1 UseB2=F ITyADJ=14
 ICtDFT=  3500011 ScaDFX=  1.000000  1.000000  1.000000  1.000000
 FoFCou: FMM=F IPFlag=           0 FMFlag=      100000 FMFlg1=           0
         NFxFlg=           0 DoJE=T BraDBF=F KetDBF=T FulRan=T
         wScrn=  0.000000 ICntrl=       500 IOpCl=  0 I1Cent=   200000004 NGrid=           0
         NMat0=    1 NMatS0=      1 NMatT0=    0 NMatD0=    1 NMtDS0=    0 NMtDT0=    0
 Symmetry not used in FoFCou.
 Harris En= -444.612211342243    
 JPrj=0 DoOrth=F DoCkMO=T.
 Mixing orbitals, IMix= 1 IMixAn=  0 NRI=1 NE=   44 Coef=  7.07106781D-01  7.07106781D-01
 Mixing orbitals, IMix= 1 IMixAn=  0 NRI=1 NE=   44 Coef= -7.07106781D-01  7.07106781D-01
 Initial guess <Sx>= 0.0000 <Sy>= 0.0000 <Sz>= 0.0000 <S**2>= 1.0000 S= 0.6180
 Leave Link  401 at Mon Aug  3 17:27:44 2020, MaxMem=  6442450944 cpu:              47.8 elap:               2.1
 (Enter /scratch/scicomp/CentOS/7.3.1611/Haswell/software/Gaussian/g16/l9999.exe)

 This type of calculation cannot be archived.


 SCIENCE AND PEACE WILL TRIUMPH OVER IGNORANCE AND WAR

                          -- PASTEUR
 Job cpu time:       0 days  0 hours  1 minutes 13.7 seconds.
 Elapsed time:       0 days  0 hours  0 minutes  3.3 seconds.
 File lengths (MBytes):  RWF=    407 Int=      0 D2E=      0 Chk=      1 Scr=      1
 Normal termination of Gaussian 16 at Mon Aug  3 17:27:45 2020.
 Initial command:
 /scratch/scicomp/CentOS/7.3.1611/Haswell/software/Gaussian/g16/l1.exe "/scratch/bochen/cyclohexadiene-dimerization/wb97xd-def2tzvp/xp-pcm/meso/Gau-97170.inp" -scrdir="/scratch/bochen/cyclohexadiene-dimerization/wb97xd-def2tzvp/xp-pcm/meso/"
 Entering Link 1 = /scratch/scicomp/CentOS/7.3.1611/Haswell/software/Gaussian/g16/l1.exe PID=     97816.
  
 Copyright (c) 1988-2017, Gaussian, Inc.  All Rights Reserved.
  
 This is part of the Gaussian(R) 16 program.  It is based on
 the Gaussian(R) 09 system (copyright 2009, Gaussian, Inc.),
 the Gaussian(R) 03 system (copyright 2003, Gaussian, Inc.),
 the Gaussian(R) 98 system (copyright 1998, Gaussian, Inc.),
 the Gaussian(R) 94 system (copyright 1995, Gaussian, Inc.),
 the Gaussian 92(TM) system (copyright 1992, Gaussian, Inc.),
 the Gaussian 90(TM) system (copyright 1990, Gaussian, Inc.),
 the Gaussian 88(TM) system (copyright 1988, Gaussian, Inc.),
 the Gaussian 86(TM) system (copyright 1986, Carnegie Mellon
 University), and the Gaussian 82(TM) system (copyright 1983,
 Carnegie Mellon University). Gaussian is a federally registered
 trademark of Gaussian, Inc.
  
 This software contains proprietary and confidential information,
 including trade secrets, belonging to Gaussian, Inc.
  
 This software is provided under written license and may be
 used, copied, transmitted, or stored only in accord with that
 written license.
  
 The following legend is applicable only to US Government
 contracts under FAR:
  
                    RESTRICTED RIGHTS LEGEND
  
 Use, reproduction and disclosure by the US Government is
 subject to restrictions as set forth in subparagraphs (a)
 and (c) of the Commercial Computer Software - Restricted
 Rights clause in FAR 52.227-19.
  
 Gaussian, Inc.
 340 Quinnipiac St., Bldg. 40, Wallingford CT 06492
  
  
 ---------------------------------------------------------------
 Warning -- This program may not be used in any manner that
 competes with the business of Gaussian, Inc. or will provide
 assistance to any competitor of Gaussian, Inc.  The licensee
 of this program is prohibited from giving any competitor of
 Gaussian, Inc. access to this program.  By using this program,
 the user acknowledges that Gaussian, Inc. is engaged in the
 business of creating and licensing software in the field of
 computational chemistry and represents and warrants to the
 licensee that it is not a competitor of Gaussian, Inc. and that
 it will not use this program in any manner prohibited above.
 ---------------------------------------------------------------
  

 Cite this work as:
 Gaussian 16, Revision B.01,
 M. J. Frisch, G. W. Trucks, H. B. Schlegel, G. E. Scuseria, 
 M. A. Robb, J. R. Cheeseman, G. Scalmani, V. Barone, 
 G. A. Petersson, H. Nakatsuji, X. Li, M. Caricato, A. V. Marenich, 
 J. Bloino, B. G. Janesko, R. Gomperts, B. Mennucci, H. P. Hratchian, 
 J. V. Ortiz, A. F. Izmaylov, J. L. Sonnenberg, D. Williams-Young, 
 F. Ding, F. Lipparini, F. Egidi, J. Goings, B. Peng, A. Petrone, 
 T. Henderson, D. Ranasinghe, V. G. Zakrzewski, J. Gao, N. Rega, 
 G. Zheng, W. Liang, M. Hada, M. Ehara, K. Toyota, R. Fukuda, 
 J. Hasegawa, M. Ishida, T. Nakajima, Y. Honda, O. Kitao, H. Nakai, 
 T. Vreven, K. Throssell, J. A. Montgomery, Jr., J. E. Peralta, 
 F. Ogliaro, M. J. Bearpark, J. J. Heyd, E. N. Brothers, K. N. Kudin, 
 V. N. Staroverov, T. A. Keith, R. Kobayashi, J. Normand, 
 K. Raghavachari, A. P. Rendell, J. C. Burant, S. S. Iyengar, 
 J. Tomasi, M. Cossi, J. M. Millam, M. Klene, C. Adamo, R. Cammi, 
 J. W. Ochterski, R. L. Martin, K. Morokuma, O. Farkas, 
 J. B. Foresman, and D. J. Fox, Gaussian, Inc., Wallingford CT, 2016.
 
 ******************************************
 Gaussian 16:  ES64L-G16RevB.01 20-Dec-2017
                 3-Aug-2020 
 ******************************************
 %chk=meso-TS_19_2_xp-110.chk
 %nproc=24
 Will use up to   24 processors via shared memory.
 %mem=48GB
 ----------------------------------------------------------------------
 #p uwb97xd guess=mix def2tzvp # scrf=(iefpcm,solvent=Cyclohexane,read)
  nosym guess=only pop=none
 ----------------------------------------------------------------------
 1/38=1,40=2,172=1/1;
 2/12=2,15=1,17=6,18=5,40=1/2;
 3/5=44,7=101,11=2,25=1,30=1,70=2203,72=17,74=-58,89=1,116=2/1,2;
 4/13=-1/1;
 99/5=2/99;
 Leave Link    1 at Mon Aug  3 17:27:45 2020, MaxMem=  6442450944 cpu:               2.0 elap:               0.1
 (Enter /scratch/scicomp/CentOS/7.3.1611/Haswell/software/Gaussian/g16/l101.exe)
 -----------------------
 endo-2 xp-pcm for eta=3
 -----------------------
 Symbolic Z-matrix:
 Charge =  0 Multiplicity = 1
 6                    -3.12085  -0.43757   0.24798 
 6                    -0.5959   -0.21339  -1.01198 
 1                    -4.0846   -0.54889   0.73123 
 1                     0.3695   -0.12151  -1.48923 
 6                     1.09579   1.40912   0.70012 
 6                     0.5959    0.21339   1.01198 
 1                     0.51347   2.31007   0.84529 
 1                    -0.3695    0.12151   1.48923 
 6                     1.47806  -1.00029   1.00423 
 1                     1.94041  -1.02809   1.9989 
 1                     0.89595  -1.91578   0.91528 
 6                     2.42365   1.51698   0.1101 
 1                     2.83206   2.50539  -0.06421 
 6                     3.12085   0.43757  -0.24798 
 1                     4.0846    0.54889  -0.73123 
 6                     2.59085  -0.95596  -0.04591 
 1                     2.24322  -1.34924  -1.00924 
 1                     3.40078  -1.62071   0.26185 
 6                    -1.09579  -1.40912  -0.70012 
 1                    -0.51347  -2.31007  -0.84529 
 6                    -2.42365  -1.51698  -0.1101 
 1                    -2.83206  -2.50539   0.06421 
 6                    -1.47806   1.00029  -1.00423 
 1                    -0.89595   1.91578  -0.91528 
 1                    -1.94041   1.02809  -1.9989 
 6                    -2.59085   0.95596   0.04591 
 1                    -3.40078   1.62071  -0.26186 
 1                    -2.24322   1.34924   1.00924 
 
 ITRead=  0  0  0  0  0  0  0  0  0  0  0  0  0  0  0  0  0  0  0  0
 ITRead=  0  0  0  0  0  0  0  0
 MicOpt= -1 -1 -1 -1 -1 -1 -1 -1 -1 -1 -1 -1 -1 -1 -1 -1 -1 -1 -1 -1
 MicOpt= -1 -1 -1 -1 -1 -1 -1 -1
 NAtoms=     28 NQM=       28 NQMF=       0 NMMI=      0 NMMIF=      0
                NMic=       0 NMicF=      0.
                    Isotopes and Nuclear Properties:
 (Nuclear quadrupole moments (NQMom) in fm**2, nuclear magnetic moments (NMagM)
  in nuclear magnetons)

  Atom         1           2           3           4           5           6           7           8           9          10
 IAtWgt=          12          12           1           1          12          12           1           1          12           1
 AtmWgt=  12.0000000  12.0000000   1.0078250   1.0078250  12.0000000  12.0000000   1.0078250   1.0078250  12.0000000   1.0078250
 NucSpn=           0           0           1           1           0           0           1           1           0           1
 AtZEff=  -0.0000000  -0.0000000  -0.0000000  -0.0000000  -0.0000000  -0.0000000  -0.0000000  -0.0000000  -0.0000000  -0.0000000
 NQMom=    0.0000000   0.0000000   0.0000000   0.0000000   0.0000000   0.0000000   0.0000000   0.0000000   0.0000000   0.0000000
 NMagM=    0.0000000   0.0000000   2.7928460   2.7928460   0.0000000   0.0000000   2.7928460   2.7928460   0.0000000   2.7928460
 AtZNuc=   6.0000000   6.0000000   1.0000000   1.0000000   6.0000000   6.0000000   1.0000000   1.0000000   6.0000000   1.0000000

  Atom        11          12          13          14          15          16          17          18          19          20
 IAtWgt=           1          12           1          12           1          12           1           1          12           1
 AtmWgt=   1.0078250  12.0000000   1.0078250  12.0000000   1.0078250  12.0000000   1.0078250   1.0078250  12.0000000   1.0078250
 NucSpn=           1           0           1           0           1           0           1           1           0           1
 AtZEff=  -0.0000000  -0.0000000  -0.0000000  -0.0000000  -0.0000000  -0.0000000  -0.0000000  -0.0000000  -0.0000000  -0.0000000
 NQMom=    0.0000000   0.0000000   0.0000000   0.0000000   0.0000000   0.0000000   0.0000000   0.0000000   0.0000000   0.0000000
 NMagM=    2.7928460   0.0000000   2.7928460   0.0000000   2.7928460   0.0000000   2.7928460   2.7928460   0.0000000   2.7928460
 AtZNuc=   1.0000000   6.0000000   1.0000000   6.0000000   1.0000000   6.0000000   1.0000000   1.0000000   6.0000000   1.0000000

  Atom        21          22          23          24          25          26          27          28
 IAtWgt=          12           1          12           1           1          12           1           1
 AtmWgt=  12.0000000   1.0078250  12.0000000   1.0078250   1.0078250  12.0000000   1.0078250   1.0078250
 NucSpn=           0           1           0           1           1           0           1           1
 AtZEff=  -0.0000000  -0.0000000  -0.0000000  -0.0000000  -0.0000000  -0.0000000  -0.0000000  -0.0000000
 NQMom=    0.0000000   0.0000000   0.0000000   0.0000000   0.0000000   0.0000000   0.0000000   0.0000000
 NMagM=    0.0000000   2.7928460   0.0000000   2.7928460   2.7928460   0.0000000   2.7928460   2.7928460
 AtZNuc=   6.0000000   1.0000000   6.0000000   1.0000000   1.0000000   6.0000000   1.0000000   1.0000000
 Leave Link  101 at Mon Aug  3 17:27:45 2020, MaxMem=  6442450944 cpu:               2.4 elap:               0.1
 (Enter /scratch/scicomp/CentOS/7.3.1611/Haswell/software/Gaussian/g16/l202.exe)
                          Input orientation:                          
 ---------------------------------------------------------------------
 Center     Atomic      Atomic             Coordinates (Angstroms)
 Number     Number       Type             X           Y           Z
 ---------------------------------------------------------------------
      1          6           0       -3.120849   -0.437571    0.247983
      2          6           0       -0.595896   -0.213392   -1.011977
      3          1           0       -4.084599   -0.548890    0.731234
      4          1           0        0.369499   -0.121508   -1.489233
      5          6           0        1.095787    1.409118    0.700116
      6          6           0        0.595896    0.213392    1.011977
      7          1           0        0.513469    2.310071    0.845290
      8          1           0       -0.369499    0.121508    1.489233
      9          6           0        1.478063   -1.000287    1.004227
     10          1           0        1.940410   -1.028087    1.998902
     11          1           0        0.895946   -1.915783    0.915280
     12          6           0        2.423651    1.516981    0.110100
     13          1           0        2.832064    2.505394   -0.064213
     14          6           0        3.120849    0.437571   -0.247983
     15          1           0        4.084599    0.548890   -0.731234
     16          6           0        2.590846   -0.955955   -0.045910
     17          1           0        2.243218   -1.349244   -1.009243
     18          1           0        3.400776   -1.620708    0.261854
     19          6           0       -1.095787   -1.409118   -0.700116
     20          1           0       -0.513469   -2.310071   -0.845290
     21          6           0       -2.423651   -1.516981   -0.110100
     22          1           0       -2.832064   -2.505394    0.064213
     23          6           0       -1.478063    1.000287   -1.004227
     24          1           0       -0.895946    1.915783   -0.915280
     25          1           0       -1.940410    1.028087   -1.998902
     26          6           0       -2.590846    0.955955    0.045910
     27          1           0       -3.400776    1.620708   -0.261855
     28          1           0       -2.243218    1.349244    1.009243
 ---------------------------------------------------------------------
                    Distance matrix (angstroms):
                    1          2          3          4          5
     1  C    0.000000
     2  C    2.830750   0.000000
     3  H    1.083853   3.914383   0.000000
     4  H    3.911565   1.080835   4.995210   0.000000
     5  C    4.625441   2.902687   5.538155   2.768313   0.000000
     6  C    3.849887   2.387237   4.750466   2.533666   1.333007
     7  H    4.595060   3.323853   5.415616   3.373915   1.082537
     8  H    3.069723   2.533666   3.850450   3.078382   2.104212
     9  C    4.694523   2.997597   5.587620   2.866794   2.458424
    10  H    5.388021   4.020195   6.175544   3.931505   2.887941
    11  H    4.331863   2.972885   5.167988   3.046022   3.337843
    12  C    5.880541   3.656626   6.856453   3.076045   1.457044
    13  H    6.647983   4.476713   7.602737   3.872405   2.191045
    14  C    6.322235   3.849887   7.338287   3.069723   2.437965
    15  H    7.338287   4.750466   8.371364   3.850450   3.423704
    16  C    5.742696   3.411746   6.732846   2.777385   2.895743
    17  H    5.584351   3.057897   6.611437   2.290971   3.441957
    18  H    6.628092   4.424542   7.576275   3.808221   3.832087
    19  C    2.437965   1.333007   3.423704   2.104212   3.834853
    20  H    3.391155   2.104909   4.282541   2.446243   4.337090
    21  C    1.333954   2.419383   2.098521   3.413362   4.648112
    22  H    2.095963   3.378151   2.416954   4.283236   5.581737
    23  C    2.516786   1.500432   3.493681   2.215207   3.113942
    24  H    3.441170   2.152386   4.353519   2.466035   2.614042
    25  H    2.930884   2.079185   3.812879   2.630021   4.080242
    26  C    1.504544   2.542897   2.228346   3.504459   3.771552
    27  H    2.138880   3.434233   2.482135   4.330906   4.603177
    28  H    2.131305   3.039874   2.659114   3.902792   3.353819
                    6          7          8          9         10
     6  C    0.000000
     7  H    2.104909   0.000000
     8  H    1.080835   2.446243   0.000000
     9  C    1.500432   3.451691   2.215207   0.000000
    10  H    2.079185   3.809236   2.630021   1.097231   0.000000
    11  H    2.152386   4.243705   2.466035   1.088533   1.747325
    12  C    2.419383   2.195061   3.413362   2.833767   3.206005
    13  H    3.378151   2.498245   4.283236   3.907004   4.187718
    14  C    2.830750   3.391155   3.911565   2.516786   2.930884
    15  H    3.914383   4.282541   4.995210   3.493681   3.812879
    16  C    2.542897   3.971984   3.504459   1.530699   2.146981
    17  H    3.039874   4.452180   3.902792   2.182039   3.040357
    18  H    3.434233   4.912022   4.330906   2.152409   2.345465
    19  C    2.902687   4.337090   2.768313   3.113942   4.080242
    20  H    3.323853   5.025771   3.373915   3.017026   3.969185
    21  C    3.656626   4.917903   3.076045   4.090485   4.871543
    22  H    4.476713   5.915351   3.872405   4.661134   5.357422
    23  C    2.997597   3.017026   2.866794   4.095713   4.981871
    24  H    2.972885   2.289437   3.046022   4.221835   5.020333
    25  H    4.020195   3.969185   3.931505   4.981871   5.938944
    26  C    3.411746   3.479858   2.777385   4.615330   5.318165
    27  H    4.424542   4.125810   3.808221   5.681166   6.376159
    28  H    3.057897   2.923934   2.290971   4.400938   4.912624
                   11         12         13         14         15
    11  H    0.000000
    12  C    3.842664   0.000000
    13  H    4.924913   1.083580   0.000000
    14  C    3.441170   1.333954   2.095963   0.000000
    15  H    4.353519   2.098521   2.416954   1.083853   0.000000
    16  C    2.172059   2.483487   3.469792   1.504544   2.228346
    17  H    2.416588   3.082326   4.012238   2.131305   2.659114
    18  H    2.605419   3.289817   4.177855   2.138879   2.482135
    19  C    2.614042   4.648112   5.581737   4.625441   5.538155
    20  H    2.289437   4.917903   5.915351   4.595060   5.415616
    21  C    3.497166   5.722740   6.618470   5.880541   6.856453
    22  H    3.869110   6.618470   7.563520   6.647983   7.602737
    23  C    4.221835   4.090485   4.661134   4.694523   5.587620
    24  H    4.608983   3.497166   3.869110   4.331863   5.167988
    25  H    5.020333   4.871543   5.357422   5.388021   6.175544
    26  C    4.600044   5.046192   5.640996   5.742696   6.732846
    27  H    5.688078   5.837213   6.298415   6.628092   7.576275
    28  H    4.530296   4.755656   5.314836   5.584351   6.611437
                   16         17         18         19         20
    16  C    0.000000
    17  H    1.097056   0.000000
    18  H    1.092063   1.740494   0.000000
    19  C    3.771552   3.353819   4.603177   0.000000
    20  H    3.479858   2.923934   4.125809   1.082537   0.000000
    21  C    5.046192   4.755656   5.837213   1.457044   2.195061
    22  H    5.640996   5.314836   6.298415   2.191045   2.498245
    23  C    4.615330   4.400938   5.681166   2.458424   3.451691
    24  H    4.600044   4.530296   5.688078   3.337843   4.243705
    25  H    5.318165   4.912624   6.376159   2.887941   3.809236
    26  C    5.523926   5.458522   6.525746   2.895743   3.971984
    27  H    6.525746   6.421361   7.552626   3.832087   4.912022
    28  H    5.458522   5.611081   6.421361   3.441957   4.452180
                   21         22         23         24         25
    21  C    0.000000
    22  H    1.083580   0.000000
    23  C    2.833767   3.907004   0.000000
    24  H    3.842664   4.924913   1.088533   0.000000
    25  H    3.206005   4.187718   1.097231   1.747325   0.000000
    26  C    2.483487   3.469792   1.530699   2.172059   2.146981
    27  H    3.289817   4.177855   2.152409   2.605419   2.345464
    28  H    3.082326   4.012238   2.182039   2.416588   3.040357
                   26         27         28
    26  C    0.000000
    27  H    1.092063   0.000000
    28  H    1.097056   1.740495   0.000000
 Symmetry turned off by external request.
 Stoichiometry    C12H16
 Framework group  CI[X(C12H16)]
 Deg. of freedom    39
 Full point group                 CI      NOp   2
 Rotational constants (GHZ):           1.8964116           0.6258216           0.5490889
 Leave Link  202 at Mon Aug  3 17:27:45 2020, MaxMem=  6442450944 cpu:               0.3 elap:               0.0
 (Enter /scratch/scicomp/CentOS/7.3.1611/Haswell/software/Gaussian/g16/l301.exe)
 Standard basis: def2TZVP (5D, 7F)
 Ernie: Thresh=  0.10000D-02 Tol=  0.10000D-05 Strict=F.
   468 basis functions,   740 primitive gaussians,   528 cartesian basis functions
    44 alpha electrons       44 beta electrons
       nuclear repulsion energy       688.1322141888 Hartrees.
 IExCor= 4639 DFT=T Ex+Corr=wB97XD ExCW=0 ScaHFX=  1.000000
 ScaDFX=  1.000000  1.000000  1.000000  1.000000 ScalE2=  1.000000  1.000000
 IRadAn=      5 IRanWt=     -1 IRanGd=            0 ICorTp=0 IEmpDi=121
 HFx  wShort=  0.000000 wLong=  0.200000 cFull=  0.222036 cShort=  0.000000 cLong=  0.777964
 DFx  wShort=  0.000000 wLong=  0.200000 cFull=  0.000000 cShort=  0.000000 cLong=  1.000000
 NAtoms=   28 NActive=   28 NUniq=   28 SFac= 1.00D+00 NAtFMM=   60 NAOKFM=F Big=F
 Integral buffers will be    131072 words long.
 Raffenetti 2 integral format.
 Two-electron integral symmetry is turned off.
 R6Disp:  Grimme-D2 Dispersion energy=       -0.0229652177 Hartrees.
 Nuclear repulsion after empirical dispersion term =      688.1092489711 Hartrees.
 Using the following non-standard input for PCM:
 qrep pcmdoc geomview  nodis nocav g03defaults tsare=0.075
 Warning! Using old PCM defaults because the g03defaults keyword was found.
 These settings can be overridden by following keywords.
 nsfe=28
 NVESolv=36  SolvMW=84.1595   Rsolv=2.815
 eps=2.0165 RhoS=0.7781
 --- end of non-standard input.
 Reading user-defined spheres from input:
 ISph  on   Nord    Re0     Alpha      Xe            Ye            Ze
 --- end of user-defined spheres data.
 ------------------------------------------------------------------------------
 Polarizable Continuum Model (PCM)
 =================================
 Model                : PCM.
 Atomic radii         : UA0 (Simple United Atom Topological Model).
 Polarization charges : Total charges.
 Charge compensation  : None.
 Solution method      : On-the-fly selection.
 Cavity type          : SES (Solvent Excluding Surface) (Alpha=1.000).
 Cavity algorithm     : GePol (RMin=0.200 OFac=0.890).
                        User-defined sphere list used, NSphG=   28.
                        Tesserae with average area of 0.075 Ang**2.
                        Smoothing algorithm: None.
                        Polarization charges: point-like.
                        Self-potential: constant (ISelfS= 1).
                        Self-field    : global E.n sum rule (ISelfD= 3).
 Solvent              : CycloHexane, Eps=   2.016500 Eps(inf)=   2.035188
                        RSolv=   2.815000 Ang.
 ------------------------------------------------------------------------------
 GePol: Number of generator spheres                  =      28
 GePol: Total number of spheres                      =     252
 GePol: Number of exposed spheres                    =     176 ( 69.84%)
 GePol: Number of tesserae                           =    4515
 GePol: Average area of tesserae                     =       0.05 Ang**2
 GePol: Minimum area of tessera                      =   0.10D-02 Ang**2
 GePol: Maximum area of tessera                      =    0.11641 Ang**2
 GePol: Number of small tesserae                     =       0
 GePol: Fraction of small tesserae (<1% of avg)      =       0.00%
 GePol: Total count of vertices                      =   16223
 GePol: Maximum number of vertices in a tessera      =       7
 GePol: Cavity surface area                          =    204.593 Ang**2
 GePol: Cavity volume                                =    218.556 Ang**3
 Leave Link  301 at Mon Aug  3 17:27:45 2020, MaxMem=  6442450944 cpu:               8.6 elap:               0.4
 (Enter /scratch/scicomp/CentOS/7.3.1611/Haswell/software/Gaussian/g16/l302.exe)
 NPDir=0 NMtPBC=     1 NCelOv=     1 NCel=       1 NClECP=     1 NCelD=      1
         NCelK=      1 NCelE2=     1 NClLst=     1 CellRange=     0.0.
 One-electron integrals computed using PRISM.
   1 Symmetry operations used in ECPInt.
 ECPInt:  NShTT=   19306 NPrTT=   56928 LenC2=   18510 LenP2D=   42188.
 LDataN:  DoStor=T MaxTD1= 6 Len=  172
 NBasis=   468 RedAO= T EigKep=  2.44D-05  NBF=   468
 NBsUse=   468 1.00D-06 EigRej= -1.00D+00 NBFU=   468
 Precomputing XC quadrature grid using
 IXCGrd= 4 IRadAn=           5 IRanWt=          -1 IRanGd=           0 AccXCQ= 0.00D+00.
 Generated NRdTot=       0 NPtTot=           0 NUsed=           0 NTot=          32
 NSgBfM=   526   526   526   526   526 MxSgAt=    28 MxSgA2=    28.
 Leave Link  302 at Mon Aug  3 17:27:46 2020, MaxMem=  6442450944 cpu:              11.7 elap:               0.5
 (Enter /scratch/scicomp/CentOS/7.3.1611/Haswell/software/Gaussian/g16/l401.exe)
 ExpMin= 9.52D-02 ExpMax= 1.36D+04 ExpMxC= 4.63D+02 IAcc=3 IRadAn=         5 AccDes= 0.00D+00
 Harris functional with IExCor= 4639 and IRadAn=       5 diagonalized for initial guess.
 HarFok:  IExCor= 4639 AccDes= 0.00D+00 IRadAn=         5 IDoV= 1 UseB2=F ITyADJ=14
 ICtDFT=  3500011 ScaDFX=  1.000000  1.000000  1.000000  1.000000
 FoFCou: FMM=F IPFlag=           0 FMFlag=      100000 FMFlg1=           0
         NFxFlg=           0 DoJE=T BraDBF=F KetDBF=T FulRan=T
         wScrn=  0.000000 ICntrl=       500 IOpCl=  0 I1Cent=   200000004 NGrid=           0
         NMat0=    1 NMatS0=      1 NMatT0=    0 NMatD0=    1 NMtDS0=    0 NMtDT0=    0
 Symmetry not used in FoFCou.
 Harris En= -444.612211342243    
 JPrj=0 DoOrth=F DoCkMO=T.
 Mixing orbitals, IMix= 1 IMixAn=  0 NRI=1 NE=   44 Coef=  7.07106781D-01  7.07106781D-01
 Mixing orbitals, IMix= 1 IMixAn=  0 NRI=1 NE=   44 Coef= -7.07106781D-01  7.07106781D-01
 Initial guess <Sx>= 0.0000 <Sy>= 0.0000 <Sz>= 0.0000 <S**2>= 1.0000 S= 0.6180
 Leave Link  401 at Mon Aug  3 17:27:48 2020, MaxMem=  6442450944 cpu:              48.0 elap:               2.1
 (Enter /scratch/scicomp/CentOS/7.3.1611/Haswell/software/Gaussian/g16/l9999.exe)

 This type of calculation cannot be archived.


 CHILDREN YOU ARE VERY LITTLE,
 AND YOUR BONES ARE VERY BRITTLE;
 IF YOU WOULD GROW GREAT AND STATELY
 YOU MUST TRY TO WALK SEDATELY.
 YOU MUST STILL BE BRIGHT AND QUIET,
 AND CONTENT WITH SIMPLE DIET;
 AND REMAIN, THROUGH ALL BEWILD'RING
 INNOCENT AND HONEST CHILDREN.
     -- A CHILD'S GARDEN OF VERSE,
        ROBERT LOUIS STEVENSON
 Job cpu time:       0 days  0 hours  1 minutes 14.0 seconds.
 Elapsed time:       0 days  0 hours  0 minutes  3.4 seconds.
 File lengths (MBytes):  RWF=    374 Int=      0 D2E=      0 Chk=      1 Scr=      1
 Normal termination of Gaussian 16 at Mon Aug  3 17:27:48 2020.
 Initial command:
 /scratch/scicomp/CentOS/7.3.1611/Haswell/software/Gaussian/g16/l1.exe "/scratch/bochen/cyclohexadiene-dimerization/wb97xd-def2tzvp/xp-pcm/meso/Gau-97170.inp" -scrdir="/scratch/bochen/cyclohexadiene-dimerization/wb97xd-def2tzvp/xp-pcm/meso/"
 Entering Link 1 = /scratch/scicomp/CentOS/7.3.1611/Haswell/software/Gaussian/g16/l1.exe PID=     97978.
  
 Copyright (c) 1988-2017, Gaussian, Inc.  All Rights Reserved.
  
 This is part of the Gaussian(R) 16 program.  It is based on
 the Gaussian(R) 09 system (copyright 2009, Gaussian, Inc.),
 the Gaussian(R) 03 system (copyright 2003, Gaussian, Inc.),
 the Gaussian(R) 98 system (copyright 1998, Gaussian, Inc.),
 the Gaussian(R) 94 system (copyright 1995, Gaussian, Inc.),
 the Gaussian 92(TM) system (copyright 1992, Gaussian, Inc.),
 the Gaussian 90(TM) system (copyright 1990, Gaussian, Inc.),
 the Gaussian 88(TM) system (copyright 1988, Gaussian, Inc.),
 the Gaussian 86(TM) system (copyright 1986, Carnegie Mellon
 University), and the Gaussian 82(TM) system (copyright 1983,
 Carnegie Mellon University). Gaussian is a federally registered
 trademark of Gaussian, Inc.
  
 This software contains proprietary and confidential information,
 including trade secrets, belonging to Gaussian, Inc.
  
 This software is provided under written license and may be
 used, copied, transmitted, or stored only in accord with that
 written license.
  
 The following legend is applicable only to US Government
 contracts under FAR:
  
                    RESTRICTED RIGHTS LEGEND
  
 Use, reproduction and disclosure by the US Government is
 subject to restrictions as set forth in subparagraphs (a)
 and (c) of the Commercial Computer Software - Restricted
 Rights clause in FAR 52.227-19.
  
 Gaussian, Inc.
 340 Quinnipiac St., Bldg. 40, Wallingford CT 06492
  
  
 ---------------------------------------------------------------
 Warning -- This program may not be used in any manner that
 competes with the business of Gaussian, Inc. or will provide
 assistance to any competitor of Gaussian, Inc.  The licensee
 of this program is prohibited from giving any competitor of
 Gaussian, Inc. access to this program.  By using this program,
 the user acknowledges that Gaussian, Inc. is engaged in the
 business of creating and licensing software in the field of
 computational chemistry and represents and warrants to the
 licensee that it is not a competitor of Gaussian, Inc. and that
 it will not use this program in any manner prohibited above.
 ---------------------------------------------------------------
  

 Cite this work as:
 Gaussian 16, Revision B.01,
 M. J. Frisch, G. W. Trucks, H. B. Schlegel, G. E. Scuseria, 
 M. A. Robb, J. R. Cheeseman, G. Scalmani, V. Barone, 
 G. A. Petersson, H. Nakatsuji, X. Li, M. Caricato, A. V. Marenich, 
 J. Bloino, B. G. Janesko, R. Gomperts, B. Mennucci, H. P. Hratchian, 
 J. V. Ortiz, A. F. Izmaylov, J. L. Sonnenberg, D. Williams-Young, 
 F. Ding, F. Lipparini, F. Egidi, J. Goings, B. Peng, A. Petrone, 
 T. Henderson, D. Ranasinghe, V. G. Zakrzewski, J. Gao, N. Rega, 
 G. Zheng, W. Liang, M. Hada, M. Ehara, K. Toyota, R. Fukuda, 
 J. Hasegawa, M. Ishida, T. Nakajima, Y. Honda, O. Kitao, H. Nakai, 
 T. Vreven, K. Throssell, J. A. Montgomery, Jr., J. E. Peralta, 
 F. Ogliaro, M. J. Bearpark, J. J. Heyd, E. N. Brothers, K. N. Kudin, 
 V. N. Staroverov, T. A. Keith, R. Kobayashi, J. Normand, 
 K. Raghavachari, A. P. Rendell, J. C. Burant, S. S. Iyengar, 
 J. Tomasi, M. Cossi, J. M. Millam, M. Klene, C. Adamo, R. Cammi, 
 J. W. Ochterski, R. L. Martin, K. Morokuma, O. Farkas, 
 J. B. Foresman, and D. J. Fox, Gaussian, Inc., Wallingford CT, 2016.
 
 ******************************************
 Gaussian 16:  ES64L-G16RevB.01 20-Dec-2017
                 3-Aug-2020 
 ******************************************
 %chk=meso-TS_19_2_xp-105.chk
 %nproc=24
 Will use up to   24 processors via shared memory.
 %mem=48GB
 ----------------------------------------------------------------------
 #p uwb97xd guess=mix def2tzvp # scrf=(iefpcm,solvent=Cyclohexane,read)
  nosym guess=only pop=none
 ----------------------------------------------------------------------
 1/38=1,40=2,172=1/1;
 2/12=2,15=1,17=6,18=5,40=1/2;
 3/5=44,7=101,11=2,25=1,30=1,70=2203,72=17,74=-58,89=1,116=2/1,2;
 4/13=-1/1;
 99/5=2/99;
 Leave Link    1 at Mon Aug  3 17:27:48 2020, MaxMem=  6442450944 cpu:               2.1 elap:               0.1
 (Enter /scratch/scicomp/CentOS/7.3.1611/Haswell/software/Gaussian/g16/l101.exe)
 -----------------------
 endo-2 xp-pcm for eta=3
 -----------------------
 Symbolic Z-matrix:
 Charge =  0 Multiplicity = 1
 6                    -3.12085  -0.43757   0.24798 
 6                    -0.5959   -0.21339  -1.01198 
 1                    -4.0846   -0.54889   0.73123 
 1                     0.3695   -0.12151  -1.48923 
 6                     1.09579   1.40912   0.70012 
 6                     0.5959    0.21339   1.01198 
 1                     0.51347   2.31007   0.84529 
 1                    -0.3695    0.12151   1.48923 
 6                     1.47806  -1.00029   1.00423 
 1                     1.94041  -1.02809   1.9989 
 1                     0.89595  -1.91578   0.91528 
 6                     2.42365   1.51698   0.1101 
 1                     2.83206   2.50539  -0.06421 
 6                     3.12085   0.43757  -0.24798 
 1                     4.0846    0.54889  -0.73123 
 6                     2.59085  -0.95596  -0.04591 
 1                     2.24322  -1.34924  -1.00924 
 1                     3.40078  -1.62071   0.26185 
 6                    -1.09579  -1.40912  -0.70012 
[...]
 6                     1.09579   1.40912   0.70012 
 6                     0.5959    0.21339   1.01198 
 1                     0.51347   2.31007   0.84529 
 1                    -0.3695    0.12151   1.48923 
 6                     1.47806  -1.00029   1.00423 
 1                     1.94041  -1.02809   1.9989 
 1                     0.89595  -1.91578   0.91528 
 6                     2.42365   1.51698   0.1101 
 1                     2.83206   2.50539  -0.06421 
 6                     3.12085   0.43757  -0.24798 
 1                     4.0846    0.54889  -0.73123 
 6                     2.59085  -0.95596  -0.04591 
 1                     2.24322  -1.34924  -1.00924 
 1                     3.40078  -1.62071   0.26185 
 6                    -1.09579  -1.40912  -0.70012 
 1                    -0.51347  -2.31007  -0.84529 
 6                    -2.42365  -1.51698  -0.1101 
 1                    -2.83206  -2.50539   0.06421 
 6                    -1.47806   1.00029  -1.00423 
 1                    -0.89595   1.91578  -0.91528 
 1                    -1.94041   1.02809  -1.9989 
 6                    -2.59085   0.95596   0.04591 
 1                    -3.40078   1.62071  -0.26186 
 1                    -2.24322   1.34924   1.00924 
 
 ITRead=  0  0  0  0  0  0  0  0  0  0  0  0  0  0  0  0  0  0  0  0
 ITRead=  0  0  0  0  0  0  0  0
 MicOpt= -1 -1 -1 -1 -1 -1 -1 -1 -1 -1 -1 -1 -1 -1 -1 -1 -1 -1 -1 -1
 MicOpt= -1 -1 -1 -1 -1 -1 -1 -1
 NAtoms=     28 NQM=       28 NQMF=       0 NMMI=      0 NMMIF=      0
                NMic=       0 NMicF=      0.
                    Isotopes and Nuclear Properties:
 (Nuclear quadrupole moments (NQMom) in fm**2, nuclear magnetic moments (NMagM)
  in nuclear magnetons)

  Atom         1           2           3           4           5           6           7           8           9          10
 IAtWgt=          12          12           1           1          12          12           1           1          12           1
 AtmWgt=  12.0000000  12.0000000   1.0078250   1.0078250  12.0000000  12.0000000   1.0078250   1.0078250  12.0000000   1.0078250
 NucSpn=           0           0           1           1           0           0           1           1           0           1
 AtZEff=  -0.0000000  -0.0000000  -0.0000000  -0.0000000  -0.0000000  -0.0000000  -0.0000000  -0.0000000  -0.0000000  -0.0000000
 NQMom=    0.0000000   0.0000000   0.0000000   0.0000000   0.0000000   0.0000000   0.0000000   0.0000000   0.0000000   0.0000000
 NMagM=    0.0000000   0.0000000   2.7928460   2.7928460   0.0000000   0.0000000   2.7928460   2.7928460   0.0000000   2.7928460
 AtZNuc=   6.0000000   6.0000000   1.0000000   1.0000000   6.0000000   6.0000000   1.0000000   1.0000000   6.0000000   1.0000000

  Atom        11          12          13          14          15          16          17          18          19          20
 IAtWgt=           1          12           1          12           1          12           1           1          12           1
 AtmWgt=   1.0078250  12.0000000   1.0078250  12.0000000   1.0078250  12.0000000   1.0078250   1.0078250  12.0000000   1.0078250
 NucSpn=           1           0           1           0           1           0           1           1           0           1
 AtZEff=  -0.0000000  -0.0000000  -0.0000000  -0.0000000  -0.0000000  -0.0000000  -0.0000000  -0.0000000  -0.0000000  -0.0000000
 NQMom=    0.0000000   0.0000000   0.0000000   0.0000000   0.0000000   0.0000000   0.0000000   0.0000000   0.0000000   0.0000000
 NMagM=    2.7928460   0.0000000   2.7928460   0.0000000   2.7928460   0.0000000   2.7928460   2.7928460   0.0000000   2.7928460
 AtZNuc=   1.0000000   6.0000000   1.0000000   6.0000000   1.0000000   6.0000000   1.0000000   1.0000000   6.0000000   1.0000000

  Atom        21          22          23          24          25          26          27          28
 IAtWgt=          12           1          12           1           1          12           1           1
 AtmWgt=  12.0000000   1.0078250  12.0000000   1.0078250   1.0078250  12.0000000   1.0078250   1.0078250
 NucSpn=           0           1           0           1           1           0           1           1
 AtZEff=  -0.0000000  -0.0000000  -0.0000000  -0.0000000  -0.0000000  -0.0000000  -0.0000000  -0.0000000
 NQMom=    0.0000000   0.0000000   0.0000000   0.0000000   0.0000000   0.0000000   0.0000000   0.0000000
 NMagM=    0.0000000   2.7928460   0.0000000   2.7928460   2.7928460   0.0000000   2.7928460   2.7928460
 AtZNuc=   6.0000000   1.0000000   6.0000000   1.0000000   1.0000000   6.0000000   1.0000000   1.0000000
 Leave Link  101 at Mon Aug  3 17:28:00 2020, MaxMem=  6442450944 cpu:               2.4 elap:               0.1
 (Enter /scratch/scicomp/CentOS/7.3.1611/Haswell/software/Gaussian/g16/l202.exe)
                          Input orientation:                          
 ---------------------------------------------------------------------
 Center     Atomic      Atomic             Coordinates (Angstroms)
 Number     Number       Type             X           Y           Z
 ---------------------------------------------------------------------
      1          6           0       -3.120849   -0.437571    0.247983
      2          6           0       -0.595896   -0.213392   -1.011977
      3          1           0       -4.084599   -0.548890    0.731234
      4          1           0        0.369499   -0.121508   -1.489233
      5          6           0        1.095787    1.409118    0.700116
      6          6           0        0.595896    0.213392    1.011977
      7          1           0        0.513469    2.310071    0.845290
      8          1           0       -0.369499    0.121508    1.489233
      9          6           0        1.478063   -1.000287    1.004227
     10          1           0        1.940410   -1.028087    1.998902
     11          1           0        0.895946   -1.915783    0.915280
     12          6           0        2.423651    1.516981    0.110100
     13          1           0        2.832064    2.505394   -0.064213
     14          6           0        3.120849    0.437571   -0.247983
     15          1           0        4.084599    0.548890   -0.731234
     16          6           0        2.590846   -0.955955   -0.045910
     17          1           0        2.243218   -1.349244   -1.009243
     18          1           0        3.400776   -1.620708    0.261854
     19          6           0       -1.095787   -1.409118   -0.700116
     20          1           0       -0.513469   -2.310071   -0.845290
     21          6           0       -2.423651   -1.516981   -0.110100
     22          1           0       -2.832064   -2.505394    0.064213
     23          6           0       -1.478063    1.000287   -1.004227
     24          1           0       -0.895946    1.915783   -0.915280
     25          1           0       -1.940410    1.028087   -1.998902
     26          6           0       -2.590846    0.955955    0.045910
     27          1           0       -3.400776    1.620708   -0.261855
     28          1           0       -2.243218    1.349244    1.009243
 ---------------------------------------------------------------------
                    Distance matrix (angstroms):
                    1          2          3          4          5
     1  C    0.000000
     2  C    2.830750   0.000000
     3  H    1.083853   3.914383   0.000000
     4  H    3.911565   1.080835   4.995210   0.000000
     5  C    4.625441   2.902687   5.538155   2.768313   0.000000
     6  C    3.849887   2.387237   4.750466   2.533666   1.333007
     7  H    4.595060   3.323853   5.415616   3.373915   1.082537
     8  H    3.069723   2.533666   3.850450   3.078382   2.104212
     9  C    4.694523   2.997597   5.587620   2.866794   2.458424
    10  H    5.388021   4.020195   6.175544   3.931505   2.887941
    11  H    4.331863   2.972885   5.167988   3.046022   3.337843
    12  C    5.880541   3.656626   6.856453   3.076045   1.457044
    13  H    6.647983   4.476713   7.602737   3.872405   2.191045
    14  C    6.322235   3.849887   7.338287   3.069723   2.437965
    15  H    7.338287   4.750466   8.371364   3.850450   3.423704
    16  C    5.742696   3.411746   6.732846   2.777385   2.895743
    17  H    5.584351   3.057897   6.611437   2.290971   3.441957
    18  H    6.628092   4.424542   7.576275   3.808221   3.832087
    19  C    2.437965   1.333007   3.423704   2.104212   3.834853
    20  H    3.391155   2.104909   4.282541   2.446243   4.337090
    21  C    1.333954   2.419383   2.098521   3.413362   4.648112
    22  H    2.095963   3.378151   2.416954   4.283236   5.581737
    23  C    2.516786   1.500432   3.493681   2.215207   3.113942
    24  H    3.441170   2.152386   4.353519   2.466035   2.614042
    25  H    2.930884   2.079185   3.812879   2.630021   4.080242
    26  C    1.504544   2.542897   2.228346   3.504459   3.771552
    27  H    2.138880   3.434233   2.482135   4.330906   4.603177
    28  H    2.131305   3.039874   2.659114   3.902792   3.353819
                    6          7          8          9         10
     6  C    0.000000
     7  H    2.104909   0.000000
     8  H    1.080835   2.446243   0.000000
     9  C    1.500432   3.451691   2.215207   0.000000
    10  H    2.079185   3.809236   2.630021   1.097231   0.000000
    11  H    2.152386   4.243705   2.466035   1.088533   1.747325
    12  C    2.419383   2.195061   3.413362   2.833767   3.206005
    13  H    3.378151   2.498245   4.283236   3.907004   4.187718
    14  C    2.830750   3.391155   3.911565   2.516786   2.930884
    15  H    3.914383   4.282541   4.995210   3.493681   3.812879
    16  C    2.542897   3.971984   3.504459   1.530699   2.146981
    17  H    3.039874   4.452180   3.902792   2.182039   3.040357
    18  H    3.434233   4.912022   4.330906   2.152409   2.345465
    19  C    2.902687   4.337090   2.768313   3.113942   4.080242
    20  H    3.323853   5.025771   3.373915   3.017026   3.969185
    21  C    3.656626   4.917903   3.076045   4.090485   4.871543
    22  H    4.476713   5.915351   3.872405   4.661134   5.357422
    23  C    2.997597   3.017026   2.866794   4.095713   4.981871
    24  H    2.972885   2.289437   3.046022   4.221835   5.020333
    25  H    4.020195   3.969185   3.931505   4.981871   5.938944
    26  C    3.411746   3.479858   2.777385   4.615330   5.318165
    27  H    4.424542   4.125810   3.808221   5.681166   6.376159
    28  H    3.057897   2.923934   2.290971   4.400938   4.912624
                   11         12         13         14         15
    11  H    0.000000
    12  C    3.842664   0.000000
    13  H    4.924913   1.083580   0.000000
    14  C    3.441170   1.333954   2.095963   0.000000
    15  H    4.353519   2.098521   2.416954   1.083853   0.000000
    16  C    2.172059   2.483487   3.469792   1.504544   2.228346
    17  H    2.416588   3.082326   4.012238   2.131305   2.659114
    18  H    2.605419   3.289817   4.177855   2.138879   2.482135
    19  C    2.614042   4.648112   5.581737   4.625441   5.538155
    20  H    2.289437   4.917903   5.915351   4.595060   5.415616
    21  C    3.497166   5.722740   6.618470   5.880541   6.856453
    22  H    3.869110   6.618470   7.563520   6.647983   7.602737
    23  C    4.221835   4.090485   4.661134   4.694523   5.587620
    24  H    4.608983   3.497166   3.869110   4.331863   5.167988
    25  H    5.020333   4.871543   5.357422   5.388021   6.175544
    26  C    4.600044   5.046192   5.640996   5.742696   6.732846
    27  H    5.688078   5.837213   6.298415   6.628092   7.576275
    28  H    4.530296   4.755656   5.314836   5.584351   6.611437
                   16         17         18         19         20
    16  C    0.000000
    17  H    1.097056   0.000000
    18  H    1.092063   1.740494   0.000000
    19  C    3.771552   3.353819   4.603177   0.000000
    20  H    3.479858   2.923934   4.125809   1.082537   0.000000
    21  C    5.046192   4.755656   5.837213   1.457044   2.195061
    22  H    5.640996   5.314836   6.298415   2.191045   2.498245
    23  C    4.615330   4.400938   5.681166   2.458424   3.451691
    24  H    4.600044   4.530296   5.688078   3.337843   4.243705
    25  H    5.318165   4.912624   6.376159   2.887941   3.809236
    26  C    5.523926   5.458522   6.525746   2.895743   3.971984
    27  H    6.525746   6.421361   7.552626   3.832087   4.912022
    28  H    5.458522   5.611081   6.421361   3.441957   4.452180
                   21         22         23         24         25
    21  C    0.000000
    22  H    1.083580   0.000000
    23  C    2.833767   3.907004   0.000000
    24  H    3.842664   4.924913   1.088533   0.000000
    25  H    3.206005   4.187718   1.097231   1.747325   0.000000
    26  C    2.483487   3.469792   1.530699   2.172059   2.146981
    27  H    3.289817   4.177855   2.152409   2.605419   2.345464
    28  H    3.082326   4.012238   2.182039   2.416588   3.040357
                   26         27         28
    26  C    0.000000
    27  H    1.092063   0.000000
    28  H    1.097056   1.740495   0.000000
 Symmetry turned off by external request.
 Stoichiometry    C12H16
 Framework group  CI[X(C12H16)]
 Deg. of freedom    39
 Full point group                 CI      NOp   2
 Rotational constants (GHZ):           1.8964116           0.6258216           0.5490889
 Leave Link  202 at Mon Aug  3 17:28:00 2020, MaxMem=  6442450944 cpu:               0.3 elap:               0.0
 (Enter /scratch/scicomp/CentOS/7.3.1611/Haswell/software/Gaussian/g16/l301.exe)
 Standard basis: def2TZVP (5D, 7F)
 Ernie: Thresh=  0.10000D-02 Tol=  0.10000D-05 Strict=F.
   468 basis functions,   740 primitive gaussians,   528 cartesian basis functions
    44 alpha electrons       44 beta electrons
       nuclear repulsion energy       688.1322141888 Hartrees.
 IExCor= 4639 DFT=T Ex+Corr=wB97XD ExCW=0 ScaHFX=  1.000000
 ScaDFX=  1.000000  1.000000  1.000000  1.000000 ScalE2=  1.000000  1.000000
 IRadAn=      5 IRanWt=     -1 IRanGd=            0 ICorTp=0 IEmpDi=121
 HFx  wShort=  0.000000 wLong=  0.200000 cFull=  0.222036 cShort=  0.000000 cLong=  0.777964
 DFx  wShort=  0.000000 wLong=  0.200000 cFull=  0.000000 cShort=  0.000000 cLong=  1.000000
 NAtoms=   28 NActive=   28 NUniq=   28 SFac= 1.00D+00 NAtFMM=   60 NAOKFM=F Big=F
 Integral buffers will be    131072 words long.
 Raffenetti 2 integral format.
 Two-electron integral symmetry is turned off.
 R6Disp:  Grimme-D2 Dispersion energy=       -0.0229652177 Hartrees.
 Nuclear repulsion after empirical dispersion term =      688.1092489711 Hartrees.
 Using the following non-standard input for PCM:
 qrep pcmdoc geomview  nodis nocav g03defaults tsare=0.075
 Warning! Using old PCM defaults because the g03defaults keyword was found.
 These settings can be overridden by following keywords.
 nsfe=28
 NVESolv=36  SolvMW=84.1595   Rsolv=2.815
 eps=2.0165 RhoS=0.7781
 --- end of non-standard input.
 Reading user-defined spheres from input:
 ISph  on   Nord    Re0     Alpha      Xe            Ye            Ze
 --- end of user-defined spheres data.
 ------------------------------------------------------------------------------
 Polarizable Continuum Model (PCM)
 =================================
 Model                : PCM.
 Atomic radii         : UA0 (Simple United Atom Topological Model).
 Polarization charges : Total charges.
 Charge compensation  : None.
 Solution method      : On-the-fly selection.
 Cavity type          : SES (Solvent Excluding Surface) (Alpha=1.000).
 Cavity algorithm     : GePol (RMin=0.200 OFac=0.890).
                        User-defined sphere list used, NSphG=   28.
                        Tesserae with average area of 0.075 Ang**2.
                        Smoothing algorithm: None.
                        Polarization charges: point-like.
                        Self-potential: constant (ISelfS= 1).
                        Self-field    : global E.n sum rule (ISelfD= 3).
 Solvent              : CycloHexane, Eps=   2.016500 Eps(inf)=   2.035188
                        RSolv=   2.815000 Ang.
 ------------------------------------------------------------------------------
 GePol: Number of generator spheres                  =      28
 GePol: Total number of spheres                      =     422
 GePol: Number of exposed spheres                    =     272 ( 64.45%)
 GePol: Number of tesserae                           =    4500
 GePol: Average area of tesserae                     =       0.04 Ang**2
 GePol: Minimum area of tessera                      =   0.10D-02 Ang**2
 GePol: Maximum area of tessera                      =    0.12579 Ang**2
 GePol: Number of small tesserae                     =       0
 GePol: Fraction of small tesserae (<1% of avg)      =       0.00%
 GePol: Total count of vertices                      =   16868
 GePol: Maximum number of vertices in a tessera      =       7
 GePol: Cavity surface area                          =    183.715 Ang**2
 GePol: Cavity volume                                =    179.621 Ang**3
 Leave Link  301 at Mon Aug  3 17:28:01 2020, MaxMem=  6442450944 cpu:              11.4 elap:               0.5
 (Enter /scratch/scicomp/CentOS/7.3.1611/Haswell/software/Gaussian/g16/l302.exe)
 NPDir=0 NMtPBC=     1 NCelOv=     1 NCel=       1 NClECP=     1 NCelD=      1
         NCelK=      1 NCelE2=     1 NClLst=     1 CellRange=     0.0.
 One-electron integrals computed using PRISM.
   1 Symmetry operations used in ECPInt.
 ECPInt:  NShTT=   19306 NPrTT=   56928 LenC2=   18510 LenP2D=   42188.
 LDataN:  DoStor=T MaxTD1= 6 Len=  172
 NBasis=   468 RedAO= T EigKep=  2.44D-05  NBF=   468
 NBsUse=   468 1.00D-06 EigRej= -1.00D+00 NBFU=   468
 Precomputing XC quadrature grid using
 IXCGrd= 4 IRadAn=           5 IRanWt=          -1 IRanGd=           0 AccXCQ= 0.00D+00.
 Generated NRdTot=       0 NPtTot=           0 NUsed=           0 NTot=          32
 NSgBfM=   526   526   526   526   526 MxSgAt=    28 MxSgA2=    28.
 Leave Link  302 at Mon Aug  3 17:28:01 2020, MaxMem=  6442450944 cpu:              12.6 elap:               0.6
 (Enter /scratch/scicomp/CentOS/7.3.1611/Haswell/software/Gaussian/g16/l401.exe)
 ExpMin= 9.52D-02 ExpMax= 1.36D+04 ExpMxC= 4.63D+02 IAcc=3 IRadAn=         5 AccDes= 0.00D+00
 Harris functional with IExCor= 4639 and IRadAn=       5 diagonalized for initial guess.
 HarFok:  IExCor= 4639 AccDes= 0.00D+00 IRadAn=         5 IDoV= 1 UseB2=F ITyADJ=14
 ICtDFT=  3500011 ScaDFX=  1.000000  1.000000  1.000000  1.000000
 FoFCou: FMM=F IPFlag=           0 FMFlag=      100000 FMFlg1=           0
         NFxFlg=           0 DoJE=T BraDBF=F KetDBF=T FulRan=T
         wScrn=  0.000000 ICntrl=       500 IOpCl=  0 I1Cent=   200000004 NGrid=           0
         NMat0=    1 NMatS0=      1 NMatT0=    0 NMatD0=    1 NMtDS0=    0 NMtDT0=    0
 Symmetry not used in FoFCou.
 Harris En= -444.612211342243    
 JPrj=0 DoOrth=F DoCkMO=T.
 Mixing orbitals, IMix= 1 IMixAn=  0 NRI=1 NE=   44 Coef=  7.07106781D-01  7.07106781D-01
 Mixing orbitals, IMix= 1 IMixAn=  0 NRI=1 NE=   44 Coef= -7.07106781D-01  7.07106781D-01
 Initial guess <Sx>= 0.0000 <Sy>= 0.0000 <Sz>= 0.0000 <S**2>= 1.0000 S= 0.6180
 Leave Link  401 at Mon Aug  3 17:28:04 2020, MaxMem=  6442450944 cpu:              48.2 elap:               2.1
 (Enter /scratch/scicomp/CentOS/7.3.1611/Haswell/software/Gaussian/g16/l9999.exe)

 This type of calculation cannot be archived.


 THE RARE EARTHS PERPLEX US IN OUR RESEARCHES,
 BAFFLE US IN OUR SPECULATIONS, AND HAUNT US IN OUR
 VERY DREAMS.  THEY STRETCH LIKE AN UNKNOWN BEFORE US,
 MOCKING, MYSTIFYING, AND MURMURING STRANGE REVELATIONS
 AND POSSIBILITIES.  -- SIR WILLIAM CROOKE, 1832-1919
 Job cpu time:       0 days  0 hours  1 minutes 18.2 seconds.
 Elapsed time:       0 days  0 hours  0 minutes  3.5 seconds.
 File lengths (MBytes):  RWF=    374 Int=      0 D2E=      0 Chk=      1 Scr=      1
 Normal termination of Gaussian 16 at Mon Aug  3 17:28:04 2020.
