 Entering Gaussian System, Link 0=g16
 Input=meso-TS_10_2_pcm.com
 Output=meso-TS_10_2_pcm.log
 Initial command:
 /scratch/scicomp/CentOS/7.3.1611/Haswell/software/Gaussian/g16/l1.exe "/scratch/bochen/cyclohexadiene-dimerization/wb97xd-def2tzvp/xp-pcm/meso/Gau-44195.inp" -scrdir="/scratch/bochen/cyclohexadiene-dimerization/wb97xd-def2tzvp/xp-pcm/meso/"
 Entering Link 1 = /scratch/scicomp/CentOS/7.3.1611/Haswell/software/Gaussian/g16/l1.exe PID=     44196.
  
 Copyright (c) 1988-2017, Gaussian, Inc.  All Rights Reserved.
  
 This is part of the Gaussian(R) 16 program.  It is based on
 the Gaussian(R) 09 system (copyright 2009, Gaussian, Inc.),
 the Gaussian(R) 03 system (copyright 2003, Gaussian, Inc.),
 the Gaussian(R) 98 system (copyright 1998, Gaussian, Inc.),
 the Gaussian(R) 94 system (copyright 1995, Gaussian, Inc.),
 the Gaussian 92(TM) system (copyright 1992, Gaussian, Inc.),
 the Gaussian 90(TM) system (copyright 1990, Gaussian, Inc.),
 the Gaussian 88(TM) system (copyright 1988, Gaussian, Inc.),
 the Gaussian 86(TM) system (copyright 1986, Carnegie Mellon
 University), and the Gaussian 82(TM) system (copyright 1983,
 Carnegie Mellon University). Gaussian is a federally registered
 trademark of Gaussian, Inc.
  
 This software contains proprietary and confidential information,
 including trade secrets, belonging to Gaussian, Inc.
  
 This software is provided under written license and may be
 used, copied, transmitted, or stored only in accord with that
 written license.
  
 The following legend is applicable only to US Government
 contracts under FAR:
  
                    RESTRICTED RIGHTS LEGEND
  
 Use, reproduction and disclosure by the US Government is
 subject to restrictions as set forth in subparagraphs (a)
 and (c) of the Commercial Computer Software - Restricted
 Rights clause in FAR 52.227-19.
  
 Gaussian, Inc.
 340 Quinnipiac St., Bldg. 40, Wallingford CT 06492
  
  
 ---------------------------------------------------------------
 Warning -- This program may not be used in any manner that
 competes with the business of Gaussian, Inc. or will provide
 assistance to any competitor of Gaussian, Inc.  The licensee
 of this program is prohibited from giving any competitor of
 Gaussian, Inc. access to this program.  By using this program,
 the user acknowledges that Gaussian, Inc. is engaged in the
 business of creating and licensing software in the field of
 computational chemistry and represents and warrants to the
 licensee that it is not a competitor of Gaussian, Inc. and that
 it will not use this program in any manner prohibited above.
 ---------------------------------------------------------------
  

 Cite this work as:
 Gaussian 16, Revision B.01,
 M. J. Frisch, G. W. Trucks, H. B. Schlegel, G. E. Scuseria, 
 M. A. Robb, J. R. Cheeseman, G. Scalmani, V. Barone, 
 G. A. Petersson, H. Nakatsuji, X. Li, M. Caricato, A. V. Marenich, 
 J. Bloino, B. G. Janesko, R. Gomperts, B. Mennucci, H. P. Hratchian, 
 J. V. Ortiz, A. F. Izmaylov, J. L. Sonnenberg, D. Williams-Young, 
 F. Ding, F. Lipparini, F. Egidi, J. Goings, B. Peng, A. Petrone, 
 T. Henderson, D. Ranasinghe, V. G. Zakrzewski, J. Gao, N. Rega, 
 G. Zheng, W. Liang, M. Hada, M. Ehara, K. Toyota, R. Fukuda, 
 J. Hasegawa, M. Ishida, T. Nakajima, Y. Honda, O. Kitao, H. Nakai, 
 T. Vreven, K. Throssell, J. A. Montgomery, Jr., J. E. Peralta, 
 F. Ogliaro, M. J. Bearpark, J. J. Heyd, E. N. Brothers, K. N. Kudin, 
 V. N. Staroverov, T. A. Keith, R. Kobayashi, J. Normand, 
 K. Raghavachari, A. P. Rendell, J. C. Burant, S. S. Iyengar, 
 J. Tomasi, M. Cossi, J. M. Millam, M. Klene, C. Adamo, R. Cammi, 
 J. W. Ochterski, R. L. Martin, K. Morokuma, O. Farkas, 
 J. B. Foresman, and D. J. Fox, Gaussian, Inc., Wallingford CT, 2016.
 
 ******************************************
 Gaussian 16:  ES64L-G16RevB.01 20-Dec-2017
                 3-Aug-2020 
 ******************************************
 %nproc=24
 Will use up to   24 processors via shared memory.
 %mem=48GB
 ----------------------------------------------------------------------
 #p uwb97xd guess=mix def2tzvp # scrf=(iefpcm,solvent=Cyclohexane,read)
  nosym 6d 10f
 ----------------------------------------------------------------------
 1/38=1,40=2,172=1/1;
 2/12=2,15=1,17=6,18=5,40=1/2;
 3/5=44,7=101,8=22,11=2,25=1,30=1,70=2203,72=17,74=-58,116=2/1,2,3;
 4/13=-1/1;
 5/5=2,38=5,53=17/2;
 6/7=2,8=2,9=2,10=2,28=1/1;
 99/5=1,9=1/99;
 Leave Link    1 at Mon Aug  3 15:54:35 2020, MaxMem=  6442450944 cpu:               1.6 elap:               0.1
 (Enter /scratch/scicomp/CentOS/7.3.1611/Haswell/software/Gaussian/g16/l101.exe)
 -----------------------
 endo-2 xp-pcm for eta=3
 -----------------------
 Symbolic Z-matrix:
 Charge =  0 Multiplicity = 1
 6                    -3.11858  -0.43688   0.24702 
 6                    -0.55548  -0.19637  -0.93221 
 1                    -4.08285  -0.54992   0.72873 
 1                     0.38094  -0.11731  -1.46688 
 6                     1.09038   1.40446   0.68938 
 6                     0.55548   0.19637   0.93221 
 1                     0.5216    2.30882   0.86435 
 1                    -0.38094   0.11731   1.46688 
 6                     1.46681  -0.99951   0.98993 
 1                     1.91194  -0.97022   1.99172 
 1                     0.9124   -1.93462   0.92485 
 6                     2.418     1.51612   0.11267 
 1                     2.82728   2.5055   -0.05462 
 6                     3.11858   0.43688  -0.24702 
 1                     4.08285   0.54992  -0.72873 
 6                     2.59169  -0.95799  -0.04479 
 1                     2.25289  -1.35586  -1.00938 
 1                     3.40056  -1.62003   0.27188 
 6                    -1.09038  -1.40446  -0.68938 
 1                    -0.5216   -2.30882  -0.86435 
 6                    -2.418    -1.51612  -0.11267 
 1                    -2.82728  -2.5055    0.05462 
 6                    -1.46681   0.99951  -0.98993 
 1                    -0.9124    1.93462  -0.92485 
 1                    -1.91194   0.97022  -1.99172 
 6                    -2.59169   0.95799   0.04479 
 1                    -3.40056   1.62003  -0.27188 
 1                    -2.25289   1.35586   1.00938 
 
 ITRead=  0  0  0  0  0  0  0  0  0  0  0  0  0  0  0  0  0  0  0  0
 ITRead=  0  0  0  0  0  0  0  0
 MicOpt= -1 -1 -1 -1 -1 -1 -1 -1 -1 -1 -1 -1 -1 -1 -1 -1 -1 -1 -1 -1
 MicOpt= -1 -1 -1 -1 -1 -1 -1 -1
 NAtoms=     28 NQM=       28 NQMF=       0 NMMI=      0 NMMIF=      0
                NMic=       0 NMicF=      0.
                    Isotopes and Nuclear Properties:
 (Nuclear quadrupole moments (NQMom) in fm**2, nuclear magnetic moments (NMagM)
  in nuclear magnetons)

  Atom         1           2           3           4           5           6           7           8           9          10
 IAtWgt=          12          12           1           1          12          12           1           1          12           1
 AtmWgt=  12.0000000  12.0000000   1.0078250   1.0078250  12.0000000  12.0000000   1.0078250   1.0078250  12.0000000   1.0078250
 NucSpn=           0           0           1           1           0           0           1           1           0           1
 AtZEff=  -0.0000000  -0.0000000  -0.0000000  -0.0000000  -0.0000000  -0.0000000  -0.0000000  -0.0000000  -0.0000000  -0.0000000
 NQMom=    0.0000000   0.0000000   0.0000000   0.0000000   0.0000000   0.0000000   0.0000000   0.0000000   0.0000000   0.0000000
 NMagM=    0.0000000   0.0000000   2.7928460   2.7928460   0.0000000   0.0000000   2.7928460   2.7928460   0.0000000   2.7928460
 AtZNuc=   6.0000000   6.0000000   1.0000000   1.0000000   6.0000000   6.0000000   1.0000000   1.0000000   6.0000000   1.0000000

  Atom        11          12          13          14          15          16          17          18          19          20
 IAtWgt=           1          12           1          12           1          12           1           1          12           1
 AtmWgt=   1.0078250  12.0000000   1.0078250  12.0000000   1.0078250  12.0000000   1.0078250   1.0078250  12.0000000   1.0078250
 NucSpn=           1           0           1           0           1           0           1           1           0           1
 AtZEff=  -0.0000000  -0.0000000  -0.0000000  -0.0000000  -0.0000000  -0.0000000  -0.0000000  -0.0000000  -0.0000000  -0.0000000
 NQMom=    0.0000000   0.0000000   0.0000000   0.0000000   0.0000000   0.0000000   0.0000000   0.0000000   0.0000000   0.0000000
 NMagM=    2.7928460   0.0000000   2.7928460   0.0000000   2.7928460   0.0000000   2.7928460   2.7928460   0.0000000   2.7928460
 AtZNuc=   1.0000000   6.0000000   1.0000000   6.0000000   1.0000000   6.0000000   1.0000000   1.0000000   6.0000000   1.0000000

  Atom        21          22          23          24          25          26          27          28
 IAtWgt=          12           1          12           1           1          12           1           1
 AtmWgt=  12.0000000   1.0078250  12.0000000   1.0078250   1.0078250  12.0000000   1.0078250   1.0078250
 NucSpn=           0           1           0           1           1           0           1           1
 AtZEff=  -0.0000000  -0.0000000  -0.0000000  -0.0000000  -0.0000000  -0.0000000  -0.0000000  -0.0000000
 NQMom=    0.0000000   0.0000000   0.0000000   0.0000000   0.0000000   0.0000000   0.0000000   0.0000000
 NMagM=    0.0000000   2.7928460   0.0000000   2.7928460   2.7928460   0.0000000   2.7928460   2.7928460
 AtZNuc=   6.0000000   1.0000000   6.0000000   1.0000000   1.0000000   6.0000000   1.0000000   1.0000000
 Leave Link  101 at Mon Aug  3 15:54:35 2020, MaxMem=  6442450944 cpu:               2.4 elap:               0.1
 (Enter /scratch/scicomp/CentOS/7.3.1611/Haswell/software/Gaussian/g16/l202.exe)
                          Input orientation:                          
 ---------------------------------------------------------------------
 Center     Atomic      Atomic             Coordinates (Angstroms)
 Number     Number       Type             X           Y           Z
 ---------------------------------------------------------------------
      1          6           0       -3.118578   -0.436876    0.247024
      2          6           0       -0.555477   -0.196368   -0.932206
      3          1           0       -4.082851   -0.549917    0.728725
      4          1           0        0.380936   -0.117306   -1.466881
      5          6           0        1.090379    1.404463    0.689379
      6          6           0        0.555477    0.196368    0.932206
      7          1           0        0.521599    2.308823    0.864348
      8          1           0       -0.380936    0.117306    1.466881
      9          6           0        1.466810   -0.999509    0.989932
     10          1           0        1.911942   -0.970218    1.991724
     11          1           0        0.912395   -1.934620    0.924846
     12          6           0        2.418004    1.516122    0.112667
     13          1           0        2.827281    2.505496   -0.054615
     14          6           0        3.118578    0.436876   -0.247024
     15          1           0        4.082851    0.549917   -0.728725
     16          6           0        2.591691   -0.957992   -0.044788
     17          1           0        2.252888   -1.355863   -1.009385
     18          1           0        3.400558   -1.620027    0.271880
     19          6           0       -1.090379   -1.404463   -0.689379
     20          1           0       -0.521599   -2.308823   -0.864348
     21          6           0       -2.418004   -1.516122   -0.112667
     22          1           0       -2.827281   -2.505496    0.054615
     23          6           0       -1.466810    0.999509   -0.989932
     24          1           0       -0.912395    1.934620   -0.924846
     25          1           0       -1.911942    0.970219   -1.991724
     26          6           0       -2.591691    0.957992    0.044788
     27          1           0       -3.400558    1.620027   -0.271880
     28          1           0       -2.252888    1.355863    1.009385
 ---------------------------------------------------------------------
                    Distance matrix (angstroms):
                    1          2          3          4          5
     1  C    0.000000
     2  C    2.831592   0.000000
     3  H    1.083807   3.914851   0.000000
     4  H    3.909756   1.081202   4.993319   0.000000
     5  C    4.615358   2.810879   5.530231   2.732864   0.000000
     6  C    3.790666   2.205559   4.702386   2.425794   1.343346
     7  H    4.601178   3.265529   5.421416   3.367568   1.082586
     8  H    3.047926   2.425794   3.833306   3.040140   2.103818
     9  C    4.679129   2.903325   5.573966   2.827249   2.451757
    10  H    5.351127   3.903379   6.140795   3.877291   2.830226
    11  H    4.353323   2.936803   5.187326   3.050481   3.352104
    12  C    5.872478   3.586917   6.849026   3.051672   1.451776
    13  H    6.640917   4.417385   7.595992   3.854632   2.186922
    14  C    6.317408   3.790666   7.333923   3.047926   2.434475
    15  H    7.333923   4.702386   8.367346   3.833306   3.419964
    16  C    5.741419   3.357417   6.731594   2.759808   2.893809
    17  H    5.592472   3.039293   6.619076   2.290749   3.443345
    18  H    6.625677   4.373424   7.573325   3.794677   3.828678
    19  C    2.434475   1.343346   3.419964   2.103818   3.814019
    20  H    3.388751   2.113816   4.279503   2.445478   4.336016
    21  C    1.336022   2.425366   2.100764   3.409494   4.634851
    22  H    2.097871   3.386293   2.419746   4.279142   5.571244
    23  C    2.514279   1.504653   3.492588   2.211091   3.085983
    24  H    3.444491   2.160684   4.354195   2.485338   2.626384
    25  H    2.906524   2.079303   3.797960   2.591421   4.048557
    26  C    1.504715   2.536382   2.228254   3.503986   3.764635
    27  H    2.140006   3.439449   2.485033   4.329671   4.597717
    28  H    2.131790   3.010050   2.656978   3.903735   3.358899
                    6          7          8          9         10
     6  C    0.000000
     7  H    2.113816   0.000000
     8  H    1.081202   2.445478   0.000000
     9  C    1.504653   3.443001   2.211091   0.000000
    10  H    2.079302   3.735792   2.591420   1.096626   0.000000
    11  H    2.160684   4.261829   2.485338   1.089057   1.751398
    12  C    2.425366   2.188550   3.409494   2.828916   3.157347
    13  H    3.386293   2.489848   4.279142   3.902181   4.135932
    14  C    2.831592   3.388751   3.909756   2.514279   2.906523
    15  H    3.914851   4.279503   4.993319   3.492588   3.797960
    16  C    2.536382   3.972894   3.503986   1.528963   2.146995
    17  H    3.010050   4.465217   3.903735   2.177654   3.044934
    18  H    3.439449   4.906657   4.329671   2.154071   2.365606
    19  C    2.810879   4.336016   2.732864   3.085983   4.048557
    20  H    3.265529   5.039772   3.367568   3.017686   3.983859
    21  C    3.586917   4.921994   3.051672   4.071166   4.845091
    22  H    4.417385   5.920163   3.854632   4.645647   5.345064
    23  C    2.903325   3.017686   2.827249   4.064734   4.917933
    24  H    2.936803   2.323270   3.050481   4.235104   4.992128
    25  H    3.903379   3.983859   3.877291   4.917933   5.852798
    26  C    3.357417   3.491274   2.759808   4.603970   5.271742
    27  H    4.373424   4.141107   3.794677   5.669692   6.328975
    28  H    3.039293   2.937166   2.290749   4.402762   4.870467
                   11         12         13         14         15
    11  H    0.000000
    12  C    3.851508   0.000000
    13  H    4.933636   1.083675   0.000000
    14  C    3.444491   1.336022   2.097871   0.000000
    15  H    4.354195   2.100764   2.419746   1.083807   0.000000
    16  C    2.171181   2.485196   3.471505   1.504715   2.228254
    17  H    2.423454   3.087809   4.018906   2.131790   2.656978
    18  H    2.591580   3.290318   4.177940   2.140006   2.485033
    19  C    2.626384   4.634851   5.571244   4.615358   5.530231
    20  H    2.323270   4.921994   5.920163   4.601178   5.421416
    21  C    3.513279   5.712465   6.609826   5.872478   6.849026
    22  H    3.881801   6.609826   7.556192   6.640917   7.595992
    23  C    4.235104   4.071166   4.645647   4.679129   5.573966
    24  H    4.660712   3.513279   3.881801   4.353323   5.187326
    25  H    4.992129   4.845091   5.345063   5.351127   6.140795
    26  C    4.628210   5.041147   5.636480   5.741419   6.731594
    27  H    5.715700   5.832181   6.294223   6.625677   7.573325
    28  H    4.566557   4.758888   5.316189   5.592472   6.619076
                   16         17         18         19         20
    16  C    0.000000
    17  H    1.097058   0.000000
    18  H    1.092170   1.740278   0.000000
    19  C    3.764635   3.358899   4.597717   0.000000
    20  H    3.491274   2.937166   4.141107   1.082586   0.000000
    21  C    5.041147   4.758888   5.832181   1.451776   2.188550
    22  H    5.636480   5.316189   6.294223   2.186922   2.489848
    23  C    4.603970   4.402762   5.669692   2.451757   3.443001
    24  H    4.628210   4.566557   5.715700   3.352104   4.261829
    25  H    5.271742   4.870468   6.328976   2.830227   3.735793
    26  C    5.526886   5.471303   6.527235   2.893809   3.972894
    27  H    6.527235   6.431274   7.553066   3.828678   4.906657
    28  H    5.471303   5.633019   6.431274   3.443345   4.465217
                   21         22         23         24         25
    21  C    0.000000
    22  H    1.083675   0.000000
    23  C    2.828916   3.902181   0.000000
    24  H    3.851508   4.933636   1.089057   0.000000
    25  H    3.157348   4.135933   1.096626   1.751397   0.000000
    26  C    2.485196   3.471505   1.528963   2.171181   2.146995
    27  H    3.290318   4.177940   2.154071   2.591580   2.365606
    28  H    3.087809   4.018906   2.177654   2.423454   3.044934
                   26         27         28
    26  C    0.000000
    27  H    1.092170   0.000000
    28  H    1.097058   1.740278   0.000000
 Symmetry turned off by external request.
 Stoichiometry    C12H16
 Framework group  CI[X(C12H16)]
 Deg. of freedom    39
 Full point group                 CI      NOp   2
 Rotational constants (GHZ):           1.9312463           0.6322496           0.5516360
 Leave Link  202 at Mon Aug  3 15:54:35 2020, MaxMem=  6442450944 cpu:               0.3 elap:               0.0
 (Enter /scratch/scicomp/CentOS/7.3.1611/Haswell/software/Gaussian/g16/l301.exe)
 Standard basis: def2TZVP (6D, 10F)
 Ernie: Thresh=  0.10000D-02 Tol=  0.10000D-05 Strict=F.
   528 basis functions,   740 primitive gaussians,   528 cartesian basis functions
    44 alpha electrons       44 beta electrons
       nuclear repulsion energy       690.9028631632 Hartrees.
 IExCor= 4639 DFT=T Ex+Corr=wB97XD ExCW=0 ScaHFX=  1.000000
 ScaDFX=  1.000000  1.000000  1.000000  1.000000 ScalE2=  1.000000  1.000000
 IRadAn=      5 IRanWt=     -1 IRanGd=            0 ICorTp=0 IEmpDi=121
 HFx  wShort=  0.000000 wLong=  0.200000 cFull=  0.222036 cShort=  0.000000 cLong=  0.777964
 DFx  wShort=  0.000000 wLong=  0.200000 cFull=  0.000000 cShort=  0.000000 cLong=  1.000000
 NAtoms=   28 NActive=   28 NUniq=   28 SFac= 1.00D+00 NAtFMM=   60 NAOKFM=F Big=F
 Integral buffers will be    131072 words long.
 Raffenetti 2 integral format.
 Two-electron integral symmetry is turned off.
 R6Disp:  Grimme-D2 Dispersion energy=       -0.0229656597 Hartrees.
 Nuclear repulsion after empirical dispersion term =      690.8798975035 Hartrees.
 Using the following non-standard input for PCM:
 norep pcmdoc geomview  nodis nocav g03defaults tsare=0.075
 Warning! Using old PCM defaults because the g03defaults keyword was found.
 These settings can be overridden by following keywords.
 nsfe=28
 NVESolv=36  SolvMW=84.1595   Rsolv=2.815
 eps=2.0165 RhoS=0.7781
 --- end of non-standard input.
 Reading user-defined spheres from input:
 ISph  on   Nord    Re0     Alpha      Xe            Ye            Ze
 --- end of user-defined spheres data.
 ------------------------------------------------------------------------------
 Polarizable Continuum Model (PCM)
 =================================
 Model                : PCM.
 Atomic radii         : UA0 (Simple United Atom Topological Model).
 Polarization charges : Total charges.
 Charge compensation  : None.
 Solution method      : On-the-fly selection.
 Cavity type          : SES (Solvent Excluding Surface) (Alpha=1.000).
 Cavity algorithm     : GePol (RMin=0.200 OFac=0.890).
                        User-defined sphere list used, NSphG=   28.
                        Tesserae with average area of 0.075 Ang**2.
                        Smoothing algorithm: None.
                        Polarization charges: point-like.
                        Self-potential: constant (ISelfS= 1).
                        Self-field    : global E.n sum rule (ISelfD= 3).
 Solvent              : CycloHexane, Eps=   2.016500 Eps(inf)=   2.035188
                        RSolv=   2.815000 Ang.
 ------------------------------------------------------------------------------
 GePol: Number of generator spheres                  =      28
 GePol: Total number of spheres                      =     180
 GePol: Number of exposed spheres                    =     133 ( 73.89%)
 GePol: Number of tesserae                           =    4662
 GePol: Average area of tesserae                     =       0.05 Ang**2
 GePol: Minimum area of tessera                      =   0.10D-02 Ang**2
 GePol: Maximum area of tessera                      =    0.12676 Ang**2
 GePol: Number of small tesserae                     =       0
 GePol: Fraction of small tesserae (<1% of avg)      =       0.00%
 GePol: Total count of vertices                      =   16536
 GePol: Maximum number of vertices in a tessera      =       7
 GePol: Cavity surface area                          =    218.351 Ang**2
 GePol: Cavity volume                                =    246.174 Ang**3
 Leave Link  301 at Mon Aug  3 15:54:35 2020, MaxMem=  6442450944 cpu:               7.7 elap:               0.4
 (Enter /scratch/scicomp/CentOS/7.3.1611/Haswell/software/Gaussian/g16/l302.exe)
 NPDir=0 NMtPBC=     1 NCelOv=     1 NCel=       1 NClECP=     1 NCelD=      1
         NCelK=      1 NCelE2=     1 NClLst=     1 CellRange=     0.0.
 One-electron integrals computed using PRISM.
   1 Symmetry operations used in ECPInt.
 ECPInt:  NShTT=   19306 NPrTT=   56928 LenC2=   18520 LenP2D=   42265.
 LDataN:  DoStor=T MaxTD1= 6 Len=  172
 NBasis=   528 RedAO= T EigKep=  2.33D-05  NBF=   528
 NBsUse=   528 1.00D-06 EigRej= -1.00D+00 NBFU=   528
 Precomputing XC quadrature grid using
 IXCGrd= 4 IRadAn=           5 IRanWt=          -1 IRanGd=           0 AccXCQ= 0.00D+00.
 Generated NRdTot=       0 NPtTot=           0 NUsed=           0 NTot=          32
 NSgBfM=   526   526   526   526   526 MxSgAt=    28 MxSgA2=    28.
 Leave Link  302 at Mon Aug  3 15:54:36 2020, MaxMem=  6442450944 cpu:              12.8 elap:               0.6
 (Enter /scratch/scicomp/CentOS/7.3.1611/Haswell/software/Gaussian/g16/l303.exe)
 DipDrv:  MaxL=1.
 Leave Link  303 at Mon Aug  3 15:54:36 2020, MaxMem=  6442450944 cpu:               1.5 elap:               0.1
 (Enter /scratch/scicomp/CentOS/7.3.1611/Haswell/software/Gaussian/g16/l401.exe)
 ExpMin= 9.52D-02 ExpMax= 1.36D+04 ExpMxC= 4.63D+02 IAcc=3 IRadAn=         5 AccDes= 0.00D+00
 Harris functional with IExCor= 4639 and IRadAn=       5 diagonalized for initial guess.
 HarFok:  IExCor= 4639 AccDes= 0.00D+00 IRadAn=         5 IDoV= 1 UseB2=F ITyADJ=14
 ICtDFT=  3500011 ScaDFX=  1.000000  1.000000  1.000000  1.000000
 FoFCou: FMM=F IPFlag=           0 FMFlag=      100000 FMFlg1=           0
         NFxFlg=           0 DoJE=T BraDBF=F KetDBF=T FulRan=T
         wScrn=  0.000000 ICntrl=       500 IOpCl=  0 I1Cent=   200000004 NGrid=           0
         NMat0=    1 NMatS0=      1 NMatT0=    0 NMatD0=    1 NMtDS0=    0 NMtDT0=    0
 Symmetry not used in FoFCou.
 Harris En= -444.624346831954    
 JPrj=0 DoOrth=F DoCkMO=T.
 Mixing orbitals, IMix= 1 IMixAn=  0 NRI=1 NE=   44 Coef=  7.07106781D-01  7.07106781D-01
 Mixing orbitals, IMix= 1 IMixAn=  0 NRI=1 NE=   44 Coef= -7.07106781D-01  7.07106781D-01
 Initial guess <Sx>= 0.0000 <Sy>= 0.0000 <Sz>= 0.0000 <S**2>= 1.0000 S= 0.6180
 Leave Link  401 at Mon Aug  3 15:54:38 2020, MaxMem=  6442450944 cpu:              50.0 elap:               2.1
 (Enter /scratch/scicomp/CentOS/7.3.1611/Haswell/software/Gaussian/g16/l502.exe)
 Two-electron integral symmetry not used.
 UHF open shell SCF:
 Using DIIS extrapolation, IDIIS=  1040.
 NGot=  6442450944 LenX=  6441877030 LenY=  6441597718
 Requested convergence on RMS density matrix=1.00D-08 within 128 cycles.
 Requested convergence on MAX density matrix=1.00D-06.
 Requested convergence on             energy=1.00D-06.
 No special actions if energy rises.
 Fock matrices will be formed incrementally for  20 cycles.

 Cycle   1  Pass 1  IDiag  1:
 FoFJK:  IHMeth= 1 ICntrl=       0 DoSepK=T KAlg= 0 I1Cent=           0 FoldK=F
 IRaf=         1 NMat=       1 IRICut=       1 DoRegI=T DoRafI=F ISym2E= 0 IDoP0=0 IntGTp=1.
 FoFCou: FMM=F IPFlag=           0 FMFlag=      100000 FMFlg1=           0
         NFxFlg=           0 DoJE=T BraDBF=F KetDBF=F FulRan=T
         wScrn=  0.000000 ICntrl=       500 IOpCl=  0 I1Cent=           0 NGrid=           0
         NMat0=    1 NMatS0=      1 NMatT0=    0 NMatD0=    1 NMtDS0=    0 NMtDT0=    0
 Symmetry not used in FoFCou.
 Inv3:  Mode=1 IEnd=    65202732.
 Iteration    1 A*A^-1 deviation from unit magnitude is 3.55D-15 for   3620.
 Iteration    1 A*A^-1 deviation from orthogonality  is 1.72D-15 for   2578   1989.
 Iteration    1 A^-1*A deviation from unit magnitude is 3.77D-15 for   3620.
 Iteration    1 A^-1*A deviation from orthogonality  is 1.90D-15 for   1921    628.
 E= -466.610612287083    
 DIIS: error= 4.97D-02 at cycle   1 NSaved=   1.
 NSaved= 1 IEnMin= 1 EnMin= -466.610612287083     IErMin= 1 ErrMin= 4.97D-02
 ErrMax= 4.97D-02  0.00D+00 EMaxC= 1.00D-01 BMatC= 4.10D+00 BMatP= 4.10D+00
 IDIUse=3 WtCom= 5.03D-01 WtEn= 4.97D-01
 Coeff-Com:  0.100D+01
 Coeff-En:   0.100D+01
 Coeff:      0.100D+01
 Gap=     0.198 Goal=   None    Shift=    0.000
 Gap=     0.198 Goal=   None    Shift=    0.000
 GapD=    0.198 DampG=1.000 DampE=0.500 DampFc=0.5000 IDamp=-1.
 Damping current iteration by 5.00D-01
 RMSDP=1.53D-03 MaxDP=9.17D-02              OVMax= 2.44D-01

 Cycle   2  Pass 1  IDiag  1:
 RMSU=  7.44D-04    CP:  9.72D-01
 E= -466.700604247402     Delta-E=       -0.089991960319 Rises=F Damp=T
 DIIS: error= 2.37D-02 at cycle   2 NSaved=   2.
 NSaved= 2 IEnMin= 2 EnMin= -466.700604247402     IErMin= 2 ErrMin= 2.37D-02
 ErrMax= 2.37D-02  0.00D+00 EMaxC= 1.00D-01 BMatC= 9.28D-01 BMatP= 4.10D+00
 IDIUse=3 WtCom= 7.63D-01 WtEn= 2.37D-01
 Coeff-Com: -0.866D+00 0.187D+01
 Coeff-En:   0.000D+00 0.100D+01
 Coeff:     -0.660D+00 0.166D+01
 Gap=     0.244 Goal=   None    Shift=    0.000
 Gap=     0.244 Goal=   None    Shift=    0.000
 RMSDP=1.05D-03 MaxDP=4.85D-02 DE=-9.00D-02 OVMax= 1.14D-01

 Cycle   3  Pass 1  IDiag  1:
 RMSU=  6.20D-04    CP:  9.32D-01  2.08D+00
 E= -466.807126537892     Delta-E=       -0.106522290490 Rises=F Damp=F
 DIIS: error= 6.40D-03 at cycle   3 NSaved=   3.
 NSaved= 3 IEnMin= 3 EnMin= -466.807126537892     IErMin= 3 ErrMin= 6.40D-03
 ErrMax= 6.40D-03  0.00D+00 EMaxC= 1.00D-01 BMatC= 2.36D-02 BMatP= 9.28D-01
 IDIUse=3 WtCom= 9.36D-01 WtEn= 6.40D-02
 Coeff-Com: -0.327D+00 0.702D+00 0.625D+00
 Coeff-En:   0.000D+00 0.000D+00 0.100D+01
 Coeff:     -0.306D+00 0.657D+00 0.649D+00
 Gap=     0.256 Goal=   None    Shift=    0.000
 Gap=     0.256 Goal=   None    Shift=    0.000
 RMSDP=2.20D-04 MaxDP=1.41D-02 DE=-1.07D-01 OVMax= 5.91D-02

 Cycle   4  Pass 1  IDiag  1:
 RMSU=  1.99D-04    CP:  9.25D-01  2.19D+00  9.61D-01
 E= -466.816888471357     Delta-E=       -0.009761933465 Rises=F Damp=F
 DIIS: error= 4.66D-03 at cycle   4 NSaved=   4.
 NSaved= 4 IEnMin= 4 EnMin= -466.816888471357     IErMin= 4 ErrMin= 4.66D-03
 ErrMax= 4.66D-03  0.00D+00 EMaxC= 1.00D-01 BMatC= 1.82D-03 BMatP= 2.36D-02
 IDIUse=3 WtCom= 9.53D-01 WtEn= 4.66D-02
 Coeff-Com:  0.888D-01-0.191D+00-0.259D-01 0.113D+01
 Coeff-En:   0.000D+00 0.000D+00 0.000D+00 0.100D+01
 Coeff:      0.847D-01-0.182D+00-0.247D-01 0.112D+01
 Gap=     0.262 Goal=   None    Shift=    0.000
 Gap=     0.262 Goal=   None    Shift=    0.000
 RMSDP=2.11D-04 MaxDP=9.73D-03 DE=-9.76D-03 OVMax= 7.42D-02

 Cycle   5  Pass 1  IDiag  1:
 RMSU=  8.49D-05    CP:  9.19D-01  2.24D+00  1.18D+00  1.63D+00
 E= -466.821225711913     Delta-E=       -0.004337240556 Rises=F Damp=F
 DIIS: error= 2.86D-03 at cycle   5 NSaved=   5.
 NSaved= 5 IEnMin= 5 EnMin= -466.821225711913     IErMin= 5 ErrMin= 2.86D-03
 ErrMax= 2.86D-03  0.00D+00 EMaxC= 1.00D-01 BMatC= 9.44D-04 BMatP= 1.82D-03
 IDIUse=3 WtCom= 9.71D-01 WtEn= 2.86D-02
 Coeff-Com:  0.884D-01-0.190D+00-0.119D+00 0.453D+00 0.768D+00
 Coeff-En:   0.000D+00 0.000D+00 0.000D+00 0.000D+00 0.100D+01
 Coeff:      0.859D-01-0.185D+00-0.115D+00 0.440D+00 0.774D+00
 Gap=     0.266 Goal=   None    Shift=    0.000
 Gap=     0.266 Goal=   None    Shift=    0.000
 RMSDP=1.13D-04 MaxDP=6.07D-03 DE=-4.34D-03 OVMax= 4.20D-02

 Cycle   6  Pass 1  IDiag  1:
 RMSU=  3.75D-05    CP:  9.15D-01  2.26D+00  1.25D+00  2.05D+00  1.50D+00
 E= -466.823028941107     Delta-E=       -0.001803229193 Rises=F Damp=F
 DIIS: error= 2.02D-03 at cycle   6 NSaved=   6.
 NSaved= 6 IEnMin= 6 EnMin= -466.823028941107     IErMin= 6 ErrMin= 2.02D-03
 ErrMax= 2.02D-03  0.00D+00 EMaxC= 1.00D-01 BMatC= 4.63D-04 BMatP= 9.44D-04
 IDIUse=3 WtCom= 9.80D-01 WtEn= 2.02D-02
 Coeff-Com: -0.526D-01 0.113D+00 0.436D-01-0.434D+00 0.618D-01 0.127D+01
 Coeff-En:   0.000D+00 0.000D+00 0.000D+00 0.000D+00 0.000D+00 0.100D+01
 Coeff:     -0.515D-01 0.111D+00 0.427D-01-0.425D+00 0.606D-01 0.126D+01
 Gap=     0.263 Goal=   None    Shift=    0.000
 Gap=     0.263 Goal=   None    Shift=    0.000
 RMSDP=1.16D-04 MaxDP=5.39D-03 DE=-1.80D-03 OVMax= 4.58D-02

 Cycle   7  Pass 1  IDiag  1:
 RMSU=  2.83D-05    CP:  9.13D-01  2.26D+00  1.31D+00  2.43D+00  2.27D+00
                    CP:  1.88D+00
 E= -466.824581657067     Delta-E=       -0.001552715961 Rises=F Damp=F
 DIIS: error= 1.40D-03 at cycle   7 NSaved=   7.
 NSaved= 7 IEnMin= 7 EnMin= -466.824581657067     IErMin= 7 ErrMin= 1.40D-03
 ErrMax= 1.40D-03  0.00D+00 EMaxC= 1.00D-01 BMatC= 2.71D-04 BMatP= 4.63D-04
 IDIUse=3 WtCom= 9.86D-01 WtEn= 1.40D-02
 Coeff-Com: -0.139D-01 0.304D-01 0.409D-01 0.137D+00-0.373D+00-0.891D+00
 Coeff-Com:  0.207D+01
 Coeff-En:   0.000D+00 0.000D+00 0.000D+00 0.000D+00 0.000D+00 0.000D+00
 Coeff-En:   0.100D+01
 Coeff:     -0.137D-01 0.300D-01 0.404D-01 0.135D+00-0.368D+00-0.879D+00
 Coeff:      0.206D+01
 Gap=     0.261 Goal=   None    Shift=    0.000
 Gap=     0.261 Goal=   None    Shift=    0.000
 RMSDP=1.29D-04 MaxDP=5.23D-03 DE=-1.55D-03 OVMax= 5.28D-02

 Cycle   8  Pass 1  IDiag  1:
 RMSU=  2.48D-05    CP:  9.10D-01  2.27D+00  1.36D+00  2.79D+00  3.00D+00
                    CP:  3.00D+00  2.75D+00
 E= -466.826014381393     Delta-E=       -0.001432724326 Rises=F Damp=F
 DIIS: error= 9.68D-04 at cycle   8 NSaved=   8.
 NSaved= 8 IEnMin= 8 EnMin= -466.826014381393     IErMin= 8 ErrMin= 9.68D-04
 ErrMax= 9.68D-04  0.00D+00 EMaxC= 1.00D-01 BMatC= 1.47D-04 BMatP= 2.71D-04
 IDIUse=3 WtCom= 9.90D-01 WtEn= 9.68D-03
 Coeff-Com:  0.474D-01-0.102D+00-0.305D-01 0.474D+00-0.604D-01-0.135D+01
 Coeff-Com:  0.287D+00 0.173D+01
 Coeff-En:   0.000D+00 0.000D+00 0.000D+00 0.000D+00 0.000D+00 0.000D+00
 Coeff-En:   0.000D+00 0.100D+01
 Coeff:      0.469D-01-0.101D+00-0.302D-01 0.469D+00-0.598D-01-0.133D+01
 Coeff:      0.284D+00 0.173D+01
 Gap=     0.260 Goal=   None    Shift=    0.000
 Gap=     0.260 Goal=   None    Shift=    0.000
 RMSDP=1.50D-04 MaxDP=6.62D-03 DE=-1.43D-03 OVMax= 6.28D-02

 Cycle   9  Pass 1  IDiag  1:
 RMSU=  1.01D-04    CP:  9.06D-01  2.27D+00  1.41D+00  3.00D+00  3.00D+00
                    CP:  3.00D+00  3.00D+00  3.00D+00
 E= -466.827138077040     Delta-E=       -0.001123695647 Rises=F Damp=F
 DIIS: error= 6.02D-04 at cycle   9 NSaved=   9.
 NSaved= 9 IEnMin= 9 EnMin= -466.827138077040     IErMin= 9 ErrMin= 6.02D-04
 ErrMax= 6.02D-04  0.00D+00 EMaxC= 1.00D-01 BMatC= 6.24D-05 BMatP= 1.47D-04
 IDIUse=3 WtCom= 9.94D-01 WtEn= 6.02D-03
 Coeff-Com:  0.368D-01-0.793D-01-0.381D-01 0.236D+00 0.127D+00-0.394D+00
 Coeff-Com: -0.724D+00 0.842D+00 0.993D+00
 Coeff-En:   0.000D+00 0.000D+00 0.000D+00 0.000D+00 0.000D+00 0.000D+00
 Coeff-En:   0.000D+00 0.000D+00 0.100D+01
 Coeff:      0.366D-01-0.788D-01-0.378D-01 0.235D+00 0.126D+00-0.392D+00
 Coeff:     -0.720D+00 0.837D+00 0.993D+00
 Gap=     0.261 Goal=   None    Shift=    0.000
 Gap=     0.261 Goal=   None    Shift=    0.000
 RMSDP=9.37D-05 MaxDP=4.19D-03 DE=-1.12D-03 OVMax= 3.99D-02

 Cycle  10  Pass 1  IDiag  1:
 RMSU=  4.15D-05    CP:  9.04D-01  2.27D+00  1.44D+00  3.00D+00  3.00D+00
                    CP:  3.00D+00  3.00D+00  3.00D+00  1.80D+00
 E= -466.827556288740     Delta-E=       -0.000418211700 Rises=F Damp=F
 DIIS: error= 3.84D-04 at cycle  10 NSaved=  10.
 NSaved=10 IEnMin=10 EnMin= -466.827556288740     IErMin=10 ErrMin= 3.84D-04
 ErrMax= 3.84D-04  0.00D+00 EMaxC= 1.00D-01 BMatC= 1.99D-05 BMatP= 6.24D-05
 IDIUse=3 WtCom= 9.96D-01 WtEn= 3.84D-03
 Coeff-Com: -0.375D-03 0.939D-03-0.567D-02-0.588D-01 0.454D-01 0.308D+00
 Coeff-Com: -0.305D+00-0.442D+00 0.130D+00 0.133D+01
 Coeff-En:   0.000D+00 0.000D+00 0.000D+00 0.000D+00 0.000D+00 0.000D+00
 Coeff-En:   0.000D+00 0.000D+00 0.000D+00 0.100D+01
 Coeff:     -0.374D-03 0.935D-03-0.565D-02-0.586D-01 0.452D-01 0.307D+00
 Coeff:     -0.304D+00-0.441D+00 0.129D+00 0.133D+01
 Gap=     0.260 Goal=   None    Shift=    0.000
 Gap=     0.260 Goal=   None    Shift=    0.000
 RMSDP=8.73D-05 MaxDP=3.84D-03 DE=-4.18D-04 OVMax= 3.73D-02

 Cycle  11  Pass 1  IDiag  1:
 RMSU=  1.25D-05    CP:  9.02D-01  2.27D+00  1.47D+00  3.00D+00  3.00D+00
                    CP:  3.00D+00  3.00D+00  3.00D+00  2.51D+00  1.99D+00
 E= -466.827761003938     Delta-E=       -0.000204715198 Rises=F Damp=F
 DIIS: error= 1.69D-04 at cycle  11 NSaved=  11.
 NSaved=11 IEnMin=11 EnMin= -466.827761003938     IErMin=11 ErrMin= 1.69D-04
 ErrMax= 1.69D-04  0.00D+00 EMaxC= 1.00D-01 BMatC= 6.07D-06 BMatP= 1.99D-05
 IDIUse=3 WtCom= 9.98D-01 WtEn= 1.69D-03
 Coeff-Com: -0.396D-02 0.858D-02 0.270D-02-0.383D-01-0.171D-01 0.135D+00
 Coeff-Com:  0.547D-01-0.295D+00-0.228D+00 0.374D+00 0.101D+01
 Coeff-En:   0.000D+00 0.000D+00 0.000D+00 0.000D+00 0.000D+00 0.000D+00
 Coeff-En:   0.000D+00 0.000D+00 0.000D+00 0.000D+00 0.100D+01
 Coeff:     -0.395D-02 0.857D-02 0.270D-02-0.382D-01-0.170D-01 0.135D+00
 Coeff:      0.546D-01-0.294D+00-0.228D+00 0.374D+00 0.101D+01
 Gap=     0.259 Goal=   None    Shift=    0.000
 Gap=     0.259 Goal=   None    Shift=    0.000
 RMSDP=4.28D-05 MaxDP=1.83D-03 DE=-2.05D-04 OVMax= 1.81D-02

 Cycle  12  Pass 1  IDiag  1:
 RMSU=  4.30D-06    CP:  9.01D-01  2.27D+00  1.49D+00  3.00D+00  3.00D+00
                    CP:  3.00D+00  3.00D+00  3.00D+00  2.86D+00  2.48D+00
                    CP:  1.78D+00
 E= -466.827802307511     Delta-E=       -0.000041303573 Rises=F Damp=F
 DIIS: error= 6.49D-05 at cycle  12 NSaved=  12.
 NSaved=12 IEnMin=12 EnMin= -466.827802307511     IErMin=12 ErrMin= 6.49D-05
 ErrMax= 6.49D-05  0.00D+00 EMaxC= 1.00D-01 BMatC= 1.40D-06 BMatP= 6.07D-06
 IDIUse=1 WtCom= 1.00D+00 WtEn= 0.00D+00
 Coeff-Com:  0.522D-02-0.113D-01-0.315D-02 0.553D-01-0.103D-01-0.164D+00
 Coeff-Com:  0.696D-01 0.228D+00-0.224D-01-0.547D+00 0.122D+00 0.128D+01
 Coeff:      0.522D-02-0.113D-01-0.315D-02 0.553D-01-0.103D-01-0.164D+00
 Coeff:      0.696D-01 0.228D+00-0.224D-01-0.547D+00 0.122D+00 0.128D+01
 Gap=     0.259 Goal=   None    Shift=    0.000
 Gap=     0.259 Goal=   None    Shift=    0.000
 RMSDP=2.19D-05 MaxDP=1.07D-03 DE=-4.13D-05 OVMax= 8.98D-03

 Cycle  13  Pass 1  IDiag  1:
 RMSU=  3.56D-06    CP:  9.00D-01  2.26D+00  1.49D+00  3.00D+00  3.00D+00
                    CP:  3.00D+00  3.00D+00  3.00D+00  3.00D+00  2.72D+00
                    CP:  2.34D+00  1.80D+00
 E= -466.827809145143     Delta-E=       -0.000006837632 Rises=F Damp=F
 DIIS: error= 1.73D-05 at cycle  13 NSaved=  13.
 NSaved=13 IEnMin=13 EnMin= -466.827809145143     IErMin=13 ErrMin= 1.73D-05
 ErrMax= 1.73D-05  0.00D+00 EMaxC= 1.00D-01 BMatC= 1.15D-07 BMatP= 1.40D-06
 IDIUse=1 WtCom= 1.00D+00 WtEn= 0.00D+00
 Coeff-Com:  0.989D-04-0.196D-03-0.362D-03-0.271D-02 0.326D-02 0.695D-02
 Coeff-Com: -0.154D-01-0.418D-02 0.245D-01 0.277D-01-0.743D-01-0.485D-01
 Coeff-Com:  0.108D+01
 Coeff:      0.989D-04-0.196D-03-0.362D-03-0.271D-02 0.326D-02 0.695D-02
 Coeff:     -0.154D-01-0.418D-02 0.245D-01 0.277D-01-0.743D-01-0.485D-01
 Coeff:      0.108D+01
 Gap=     0.259 Goal=   None    Shift=    0.000
 Gap=     0.259 Goal=   None    Shift=    0.000
 RMSDP=1.87D-06 MaxDP=8.65D-05 DE=-6.84D-06 OVMax= 6.25D-04

 Cycle  14  Pass 1  IDiag  1:
 RMSU=  1.25D-06    CP:  9.00D-01  2.26D+00  1.49D+00  3.00D+00  3.00D+00
                    CP:  3.00D+00  3.00D+00  3.00D+00  3.00D+00  2.74D+00
                    CP:  2.33D+00  1.83D+00  1.30D+00
 E= -466.827809357407     Delta-E=       -0.000000212264 Rises=F Damp=F
 DIIS: error= 1.09D-05 at cycle  14 NSaved=  14.
 NSaved=14 IEnMin=14 EnMin= -466.827809357407     IErMin=14 ErrMin= 1.09D-05
 ErrMax= 1.09D-05  0.00D+00 EMaxC= 1.00D-01 BMatC= 4.64D-08 BMatP= 1.15D-07
 IDIUse=1 WtCom= 1.00D+00 WtEn= 0.00D+00
 Coeff-Com: -0.597D-03 0.129D-02 0.276D-03-0.714D-02 0.179D-02 0.226D-01
 Coeff-Com: -0.107D-01-0.325D-01 0.520D-02 0.843D-01-0.377D-01-0.230D+00
 Coeff-Com:  0.266D-01 0.118D+01
 Coeff:     -0.597D-03 0.129D-02 0.276D-03-0.714D-02 0.179D-02 0.226D-01
 Coeff:     -0.107D-01-0.325D-01 0.520D-02 0.843D-01-0.377D-01-0.230D+00
 Coeff:      0.266D-01 0.118D+01
 Gap=     0.259 Goal=   None    Shift=    0.000
 Gap=     0.259 Goal=   None    Shift=    0.000
 RMSDP=1.77D-06 MaxDP=8.76D-05 DE=-2.12D-07 OVMax= 6.72D-04

 Cycle  15  Pass 1  IDiag  1:
 RMSU=  4.82D-07    CP:  9.00D-01  2.26D+00  1.49D+00  3.00D+00  3.00D+00
                    CP:  3.00D+00  3.00D+00  3.00D+00  3.00D+00  2.76D+00
                    CP:  2.37D+00  1.89D+00  1.62D+00  1.60D+00
 E= -466.827809472888     Delta-E=       -0.000000115481 Rises=F Damp=F
 DIIS: error= 6.07D-06 at cycle  15 NSaved=  15.
 NSaved=15 IEnMin=15 EnMin= -466.827809472888     IErMin=15 ErrMin= 6.07D-06
 ErrMax= 6.07D-06  0.00D+00 EMaxC= 1.00D-01 BMatC= 1.51D-08 BMatP= 4.64D-08
 IDIUse=1 WtCom= 1.00D+00 WtEn= 0.00D+00
 Coeff-Com:  0.126D-04-0.303D-04-0.793D-04-0.234D-03 0.413D-03 0.257D-02
 Coeff-Com: -0.268D-02-0.386D-02-0.490D-03 0.161D-01 0.342D-02-0.540D-01
 Coeff-Com: -0.263D+00 0.234D+00 0.107D+01
 Coeff:      0.126D-04-0.303D-04-0.793D-04-0.234D-03 0.413D-03 0.257D-02
 Coeff:     -0.268D-02-0.386D-02-0.490D-03 0.161D-01 0.342D-02-0.540D-01
 Coeff:     -0.263D+00 0.234D+00 0.107D+01
 Gap=     0.259 Goal=   None    Shift=    0.000
 Gap=     0.259 Goal=   None    Shift=    0.000
 RMSDP=6.63D-07 MaxDP=3.64D-05 DE=-1.15D-07 OVMax= 2.15D-04

 Cycle  16  Pass 1  IDiag  1:
 RMSU=  2.37D-07    CP:  9.00D-01  2.26D+00  1.49D+00  3.00D+00  3.00D+00
                    CP:  3.00D+00  3.00D+00  3.00D+00  3.00D+00  2.76D+00
                    CP:  2.38D+00  1.92D+00  1.74D+00  1.83D+00  1.41D+00
 E= -466.827809503708     Delta-E=       -0.000000030820 Rises=F Damp=F
 DIIS: error= 2.90D-06 at cycle  16 NSaved=  16.
 NSaved=16 IEnMin=16 EnMin= -466.827809503708     IErMin=16 ErrMin= 2.90D-06
 ErrMax= 2.90D-06  0.00D+00 EMaxC= 1.00D-01 BMatC= 4.01D-09 BMatP= 1.51D-08
 IDIUse=1 WtCom= 1.00D+00 WtEn= 0.00D+00
 Coeff-Com:  0.116D-03-0.250D-03-0.620D-04 0.134D-02-0.130D-03-0.436D-02
 Coeff-Com:  0.661D-03 0.805D-02 0.739D-03-0.202D-01 0.587D-02 0.621D-01
 Coeff-Com:  0.524D-01-0.428D+00-0.158D+00 0.148D+01
 Coeff:      0.116D-03-0.250D-03-0.620D-04 0.134D-02-0.130D-03-0.436D-02
 Coeff:      0.661D-03 0.805D-02 0.739D-03-0.202D-01 0.587D-02 0.621D-01
 Coeff:      0.524D-01-0.428D+00-0.158D+00 0.148D+01
 Gap=     0.259 Goal=   None    Shift=    0.000
 Gap=     0.259 Goal=   None    Shift=    0.000
 RMSDP=3.72D-07 MaxDP=2.08D-05 DE=-3.08D-08 OVMax= 8.92D-05

 Cycle  17  Pass 1  IDiag  1:
 RMSU=  9.96D-08    CP:  9.00D-01  2.26D+00  1.49D+00  3.00D+00  3.00D+00
                    CP:  3.00D+00  3.00D+00  3.00D+00  3.00D+00  2.77D+00
                    CP:  2.38D+00  1.93D+00  1.78D+00  1.93D+00  1.76D+00
                    CP:  2.01D+00
 E= -466.827809513299     Delta-E=       -0.000000009591 Rises=F Damp=F
 DIIS: error= 7.63D-07 at cycle  17 NSaved=  17.
 NSaved=17 IEnMin=17 EnMin= -466.827809513299     IErMin=17 ErrMin= 7.63D-07
 ErrMax= 7.63D-07  0.00D+00 EMaxC= 1.00D-01 BMatC= 6.38D-10 BMatP= 4.01D-09
 IDIUse=1 WtCom= 1.00D+00 WtEn= 0.00D+00
 Coeff-Com: -0.135D-04 0.301D-04 0.256D-04-0.533D-04-0.763D-04-0.343D-03
 Coeff-Com:  0.259D-03 0.130D-02 0.522D-04-0.545D-02 0.117D-02 0.236D-01
 Coeff-Com:  0.670D-01-0.153D+00-0.264D+00 0.409D+00 0.922D+00
 Coeff:     -0.135D-04 0.301D-04 0.256D-04-0.533D-04-0.763D-04-0.343D-03
 Coeff:      0.259D-03 0.130D-02 0.522D-04-0.545D-02 0.117D-02 0.236D-01
 Coeff:      0.670D-01-0.153D+00-0.264D+00 0.409D+00 0.922D+00
 Gap=     0.259 Goal=   None    Shift=    0.000
 Gap=     0.259 Goal=   None    Shift=    0.000
 RMSDP=1.03D-07 MaxDP=5.37D-06 DE=-9.59D-09 OVMax= 2.32D-05

 Cycle  18  Pass 1  IDiag  1:
 RMSU=  4.32D-08    CP:  9.00D-01  2.26D+00  1.49D+00  3.00D+00  3.00D+00
                    CP:  3.00D+00  3.00D+00  3.00D+00  3.00D+00  2.76D+00
                    CP:  2.38D+00  1.92D+00  1.78D+00  1.95D+00  1.84D+00
                    CP:  2.30D+00  1.33D+00
 E= -466.827809514093     Delta-E=       -0.000000000794 Rises=F Damp=F
 DIIS: error= 1.97D-07 at cycle  18 NSaved=  18.
 NSaved=18 IEnMin=18 EnMin= -466.827809514093     IErMin=18 ErrMin= 1.97D-07
 ErrMax= 1.97D-07  0.00D+00 EMaxC= 1.00D-01 BMatC= 4.49D-11 BMatP= 6.38D-10
 IDIUse=1 WtCom= 1.00D+00 WtEn= 0.00D+00
 Coeff-Com: -0.180D-04 0.386D-04 0.141D-04-0.174D-03-0.285D-04 0.516D-03
 Coeff-Com:  0.506D-04-0.854D-03-0.317D-03 0.190D-02-0.220D-03-0.476D-02
 Coeff-Com: -0.320D-02 0.374D-01 0.530D-02-0.137D+00 0.461D-01 0.106D+01
 Coeff:     -0.180D-04 0.386D-04 0.141D-04-0.174D-03-0.285D-04 0.516D-03
 Coeff:      0.506D-04-0.854D-03-0.317D-03 0.190D-02-0.220D-03-0.476D-02
 Coeff:     -0.320D-02 0.374D-01 0.530D-02-0.137D+00 0.461D-01 0.106D+01
 Gap=     0.259 Goal=   None    Shift=    0.000
 Gap=     0.259 Goal=   None    Shift=    0.000
 RMSDP=2.95D-08 MaxDP=1.36D-06 DE=-7.94D-10 OVMax= 8.36D-06

 Cycle  19  Pass 1  IDiag  1:
 RMSU=  1.20D-08    CP:  9.00D-01  2.26D+00  1.49D+00  3.00D+00  3.00D+00
                    CP:  3.00D+00  3.00D+00  3.00D+00  3.00D+00  2.76D+00
                    CP:  2.38D+00  1.92D+00  1.78D+00  1.95D+00  1.83D+00
                    CP:  2.35D+00  1.48D+00  1.23D+00
 E= -466.827809514132     Delta-E=       -0.000000000040 Rises=F Damp=F
 DIIS: error= 9.80D-08 at cycle  19 NSaved=  19.
 NSaved=19 IEnMin=19 EnMin= -466.827809514132     IErMin=19 ErrMin= 9.80D-08
 ErrMax= 9.80D-08  0.00D+00 EMaxC= 1.00D-01 BMatC= 1.21D-11 BMatP= 4.49D-11
 IDIUse=1 WtCom= 1.00D+00 WtEn= 0.00D+00
 Coeff-Com: -0.406D-05 0.860D-05 0.248D-05-0.370D-04-0.106D-04 0.152D-03
 Coeff-Com:  0.476D-04-0.337D-03-0.142D-03 0.973D-03-0.172D-03-0.370D-02
 Coeff-Com: -0.803D-02 0.290D-01 0.281D-01-0.918D-01-0.764D-01 0.399D+00
 Coeff-Com:  0.724D+00
 Coeff:     -0.406D-05 0.860D-05 0.248D-05-0.370D-04-0.106D-04 0.152D-03
 Coeff:      0.476D-04-0.337D-03-0.142D-03 0.973D-03-0.172D-03-0.370D-02
 Coeff:     -0.803D-02 0.290D-01 0.281D-01-0.918D-01-0.764D-01 0.399D+00
 Coeff:      0.724D+00
 Gap=     0.259 Goal=   None    Shift=    0.000
 Gap=     0.259 Goal=   None    Shift=    0.000
 RMSDP=6.94D-09 MaxDP=3.15D-07 DE=-3.96D-11 OVMax= 1.66D-06

 Error on total polarization charges =  0.01172
 SCF Done:  E(UwB97XD) =  -466.827809514     A.U. after   19 cycles
            NFock= 19  Conv=0.69D-08     -V/T= 2.0055
 <Sx>= 0.0000 <Sy>= 0.0000 <Sz>= 0.0000 <S**2>= 0.0000 S= 0.0000
 <L.S>=  0.00000000000    
 KE= 4.642777381923D+02 PE=-2.463528002419D+03 EE= 8.415425572089D+02
 --------------------------------------------------------------------
 Variational PCM results
 =======================
 <psi(f)|   H    |psi(f)>                     (a.u.) =    -466.826335
 <psi(f)|H+V(f)/2|psi(f)>                     (a.u.) =    -466.827810
 (Polarized solute)-Solvent               (kcal/mol) =      -0.93
 --------------------------------------------------------------------
 Partition over spheres:
 Sphere  on Atom  Surface  Charge   GEl     GCav    GDR
    1      C1       7.30   0.011   -0.05    0.00    0.00
    2      C2       2.44   0.003   -0.02    0.00    0.00
    3      H3       7.52  -0.010   -0.03    0.00    0.00
    4      H4       2.70  -0.003   -0.01    0.00    0.00
    5      C5       4.69   0.009   -0.06    0.00    0.00
    6      C6       2.18   0.003   -0.01    0.00    0.00
    7      H7       4.76  -0.007   -0.03    0.00    0.00
    8      H8       2.33  -0.003   -0.01    0.00    0.00
    9      C9       3.20   0.002    0.00    0.00    0.00
   10      H10      6.46  -0.006   -0.01    0.00    0.00
   11      H11      3.51  -0.003   -0.01    0.00    0.00
   12      C12      6.82   0.011   -0.07    0.00    0.00
   13      H13      7.50  -0.010   -0.03    0.00    0.00
   14      C14      7.02   0.011   -0.05    0.00    0.00
   15      H15      7.52  -0.010   -0.03    0.00    0.00
   16      C16      3.37   0.001    0.00    0.00    0.00
   17      H17      3.90  -0.004   -0.02    0.00    0.00
   18      H18      7.36  -0.008   -0.03    0.00    0.00
   19      C19      4.85   0.009   -0.06    0.00    0.00
   20      H20      5.04  -0.007   -0.03    0.00    0.00
   21      C21      7.19   0.011   -0.07    0.00    0.00
   22      H22      7.52  -0.010   -0.03    0.00    0.00
   23      C23      3.12   0.002    0.00    0.00    0.00
   24      H24      3.53  -0.003   -0.01    0.00    0.00
   25      H25      6.46  -0.006   -0.01    0.00    0.00
   26      C26      3.28   0.001    0.00    0.00    0.00
   27      H27      7.37  -0.008   -0.03    0.00    0.00
   28      H28      4.10  -0.004   -0.02    0.00    0.00
 Added spheres:    75.33   0.016   -0.22    0.00    0.00
 --------------------------------------------------------------------
 After PCM corrections, the energy is  -466.827809514     a.u.
 --------------------------------------------------------------------
 Annihilation of the first spin contaminant:
 S**2 before annihilation     0.0000,   after     0.0000
 Leave Link  502 at Mon Aug  3 16:00:22 2020, MaxMem=  6442450944 cpu:            8177.2 elap:             343.6
 (Enter /scratch/scicomp/CentOS/7.3.1611/Haswell/software/Gaussian/g16/l601.exe)
 Copying SCF densities to generalized density rwf, IOpCl= 1 IROHF=0.

 **********************************************************************

            Population analysis using the SCF Density.

 **********************************************************************

 Alpha  occ. eigenvalues --  -10.28746 -10.28745 -10.28611 -10.28610 -10.28268
 Alpha  occ. eigenvalues --  -10.28268 -10.28210 -10.28210 -10.28011 -10.28011
 Alpha  occ. eigenvalues --  -10.27216 -10.27215  -0.95002  -0.93482  -0.85119
 Alpha  occ. eigenvalues --   -0.84441  -0.83667  -0.83249  -0.71677  -0.70810
 Alpha  occ. eigenvalues --   -0.68830  -0.67831  -0.60125  -0.59895  -0.58000
 Alpha  occ. eigenvalues --   -0.56367  -0.53471  -0.53199  -0.51141  -0.50688
 Alpha  occ. eigenvalues --   -0.49861  -0.48855  -0.47786  -0.47135  -0.46295
 Alpha  occ. eigenvalues --   -0.44778  -0.41599  -0.41064  -0.39938  -0.39377
 Alpha  occ. eigenvalues --   -0.39121  -0.38229  -0.31082  -0.25083
 Alpha virt. eigenvalues --    0.00786   0.07496   0.10449   0.12422   0.13369
 Alpha virt. eigenvalues --    0.14496   0.14659   0.15531   0.15886   0.16334
 Alpha virt. eigenvalues --    0.16423   0.17377   0.17794   0.18794   0.19921
 Alpha virt. eigenvalues --    0.20868   0.21366   0.22819   0.23306   0.23936
 Alpha virt. eigenvalues --    0.24516   0.25240   0.26301   0.26536   0.27475
 Alpha virt. eigenvalues --    0.28642   0.28975   0.29738   0.30263   0.30571
 Alpha virt. eigenvalues --    0.30927   0.31654   0.32337   0.33015   0.34036
 Alpha virt. eigenvalues --    0.34540   0.35228   0.35800   0.36353   0.37531
 Alpha virt. eigenvalues --    0.37732   0.38816   0.41296   0.41725   0.42288
 Alpha virt. eigenvalues --    0.43931   0.43937   0.44276   0.44785   0.45519
 Alpha virt. eigenvalues --    0.46620   0.47626   0.48207   0.48560   0.48722
 Alpha virt. eigenvalues --    0.48773   0.48969   0.49214   0.49947   0.50252
 Alpha virt. eigenvalues --    0.50314   0.50656   0.51988   0.52105   0.52927
 Alpha virt. eigenvalues --    0.52948   0.54224   0.54725   0.54976   0.55467
 Alpha virt. eigenvalues --    0.56748   0.57275   0.58235   0.59332   0.60340
 Alpha virt. eigenvalues --    0.60342   0.60453   0.61517   0.63529   0.64094
 Alpha virt. eigenvalues --    0.66619   0.66837   0.67898   0.68409   0.68857
 Alpha virt. eigenvalues --    0.70845   0.72366   0.73292   0.76200   0.76637
 Alpha virt. eigenvalues --    0.77180   0.78489   0.78913   0.81016   0.81966
 Alpha virt. eigenvalues --    0.83487   0.84310   0.85347   0.85862   0.87817
 Alpha virt. eigenvalues --    0.88836   0.90142   0.92536   0.93910   0.94944
 Alpha virt. eigenvalues --    0.95284   0.97825   0.97856   0.98594   0.99701
 Alpha virt. eigenvalues --    1.02317   1.02456   1.03927   1.04831   1.05514
 Alpha virt. eigenvalues --    1.07119   1.07837   1.08217   1.09540   1.10652
 Alpha virt. eigenvalues --    1.12536   1.13834   1.15311   1.16684   1.16895
 Alpha virt. eigenvalues --    1.17818   1.18624   1.19105   1.19637   1.19797
 Alpha virt. eigenvalues --    1.20462   1.21905   1.23991   1.25865   1.25915
 Alpha virt. eigenvalues --    1.26380   1.26865   1.28198   1.28997   1.29274
 Alpha virt. eigenvalues --    1.30500   1.30590   1.33305   1.33339   1.33758
 Alpha virt. eigenvalues --    1.34925   1.35306   1.36438   1.38156   1.39419
 Alpha virt. eigenvalues --    1.39518   1.40031   1.40294   1.41905   1.42732
 Alpha virt. eigenvalues --    1.42961   1.43227   1.43730   1.44612   1.45167
 Alpha virt. eigenvalues --    1.45440   1.45556   1.47926   1.48471   1.48923
 Alpha virt. eigenvalues --    1.50673   1.53320   1.54278   1.57192   1.57467
 Alpha virt. eigenvalues --    1.58066   1.59214   1.60223   1.60551   1.62470
 Alpha virt. eigenvalues --    1.64201   1.64842   1.65056   1.66284   1.68277
 Alpha virt. eigenvalues --    1.70574   1.72594   1.75973   1.76847   1.77284
 Alpha virt. eigenvalues --    1.79905   1.81707   1.82257   1.84690   1.86016
 Alpha virt. eigenvalues --    1.88728   1.90042   1.90678   1.94028   1.94036
 Alpha virt. eigenvalues --    1.96049   1.97294   1.98451   2.01075   2.02304
 Alpha virt. eigenvalues --    2.05542   2.06484   2.08434   2.11394   2.11901
 Alpha virt. eigenvalues --    2.12763   2.15584   2.16273   2.16815   2.18392
 Alpha virt. eigenvalues --    2.18809   2.19890   2.20342   2.23419   2.24296
 Alpha virt. eigenvalues --    2.24826   2.25445   2.27395   2.30025   2.31865
 Alpha virt. eigenvalues --    2.36064   2.36485   2.38928   2.40273   2.44258
 Alpha virt. eigenvalues --    2.44394   2.47691   2.47924   2.48698   2.50024
 Alpha virt. eigenvalues --    2.50646   2.53062   2.53623   2.56176   2.57144
 Alpha virt. eigenvalues --    2.60616   2.60845   2.61914   2.62092   2.62388
 Alpha virt. eigenvalues --    2.64601   2.65318   2.65627   2.67521   2.69145
 Alpha virt. eigenvalues --    2.69735   2.71858   2.72484   2.73411   2.74393
 Alpha virt. eigenvalues --    2.74935   2.75864   2.75915   2.76927   2.76984
 Alpha virt. eigenvalues --    2.79637   2.79691   2.81438   2.81706   2.82872
 Alpha virt. eigenvalues --    2.82958   2.83660   2.84708   2.85105   2.86064
 Alpha virt. eigenvalues --    2.86247   2.88069   2.88966   2.89986   2.92361
 Alpha virt. eigenvalues --    2.92693   2.94490   2.95593   2.96087   2.96846
 Alpha virt. eigenvalues --    2.97579   2.97674   2.98106   2.99043   3.02074
 Alpha virt. eigenvalues --    3.02806   3.02839   3.03573   3.04625   3.05073
 Alpha virt. eigenvalues --    3.07402   3.08461   3.09589   3.10674   3.10958
 Alpha virt. eigenvalues --    3.11921   3.12555   3.13170   3.14376   3.14521
 Alpha virt. eigenvalues --    3.16350   3.16527   3.17542   3.17859   3.20031
 Alpha virt. eigenvalues --    3.20195   3.20326   3.20762   3.21387   3.23037
 Alpha virt. eigenvalues --    3.23689   3.24070   3.24213   3.24989   3.25628
 Alpha virt. eigenvalues --    3.26893   3.27175   3.27295   3.28835   3.29730
 Alpha virt. eigenvalues --    3.30080   3.31089   3.31898   3.32200   3.34141
 Alpha virt. eigenvalues --    3.34181   3.34955   3.36070   3.36076   3.37259
 Alpha virt. eigenvalues --    3.37426   3.39018   3.39422   3.41585   3.42239
 Alpha virt. eigenvalues --    3.43552   3.44769   3.45267   3.46656   3.46997
 Alpha virt. eigenvalues --    3.47371   3.48101   3.48274   3.49133   3.51126
 Alpha virt. eigenvalues --    3.52373   3.53059   3.53539   3.53821   3.55479
 Alpha virt. eigenvalues --    3.56513   3.56691   3.57870   3.58381   3.60633
 Alpha virt. eigenvalues --    3.62034   3.63074   3.64223   3.64631   3.65019
 Alpha virt. eigenvalues --    3.65617   3.67263   3.68092   3.70494   3.71360
 Alpha virt. eigenvalues --    3.71963   3.72323   3.75974   3.79517   3.79898
 Alpha virt. eigenvalues --    3.80763   3.81850   3.82807   3.83086   3.83488
 Alpha virt. eigenvalues --    3.85234   3.86864   3.90392   3.90853   3.91583
 Alpha virt. eigenvalues --    3.93054   3.96020   3.96295   4.01094   4.01306
 Alpha virt. eigenvalues --    4.03964   4.04029   4.06637   4.07914   4.09954
 Alpha virt. eigenvalues --    4.10385   4.12569   4.13819   4.14156   4.14550
 Alpha virt. eigenvalues --    4.16101   4.18651   4.18793   4.19623   4.20936
 Alpha virt. eigenvalues --    4.21469   4.23730   4.25751   4.28850   4.29249
 Alpha virt. eigenvalues --    4.31212   4.32257   4.33331   4.34893   4.39182
 Alpha virt. eigenvalues --    4.39628   4.41213   4.42749   4.45288   4.48046
 Alpha virt. eigenvalues --    4.48779   4.50556   4.51689   4.54427   4.57214
 Alpha virt. eigenvalues --    4.57300   4.60380   4.61273   4.67741   4.67962
 Alpha virt. eigenvalues --    4.70883   4.73156   4.75673   4.76519   4.78913
 Alpha virt. eigenvalues --    4.80514   4.80789   4.84925   4.86468   4.87684
 Alpha virt. eigenvalues --    4.91383   4.92872   4.93178   4.94345   4.98399
 Alpha virt. eigenvalues --    4.98701   5.04441   5.07494   5.11141   5.12320
 Alpha virt. eigenvalues --    5.17275   5.20428   5.22923   5.23050   5.25397
 Alpha virt. eigenvalues --    5.28931   5.36850   5.38333   5.40145   5.41798
 Alpha virt. eigenvalues --    5.45720   5.45808   5.51719   5.56191   5.71171
 Alpha virt. eigenvalues --    5.71593   5.73863   5.76401   5.94339   6.01607
 Alpha virt. eigenvalues --    7.95096   7.95700   8.03619   8.03723   8.05350
 Alpha virt. eigenvalues --    8.10099   8.11134   8.14595   8.18725   8.20238
 Alpha virt. eigenvalues --    8.34128   8.39721  34.77552  34.77712  34.81291
 Alpha virt. eigenvalues --   34.81414  34.84598  34.91525  34.97954  34.99600
 Alpha virt. eigenvalues --   35.02955  35.03203  35.16493  35.21721
  Beta  occ. eigenvalues --  -10.28746 -10.28745 -10.28611 -10.28610 -10.28268
  Beta  occ. eigenvalues --  -10.28268 -10.28210 -10.28210 -10.28011 -10.28011
  Beta  occ. eigenvalues --  -10.27216 -10.27215  -0.95002  -0.93482  -0.85119
  Beta  occ. eigenvalues --   -0.84441  -0.83667  -0.83249  -0.71677  -0.70810
  Beta  occ. eigenvalues --   -0.68830  -0.67831  -0.60125  -0.59895  -0.58000
  Beta  occ. eigenvalues --   -0.56367  -0.53471  -0.53199  -0.51141  -0.50688
  Beta  occ. eigenvalues --   -0.49861  -0.48855  -0.47786  -0.47135  -0.46295
  Beta  occ. eigenvalues --   -0.44778  -0.41599  -0.41064  -0.39938  -0.39377
  Beta  occ. eigenvalues --   -0.39121  -0.38229  -0.31082  -0.25083
  Beta virt. eigenvalues --    0.00786   0.07496   0.10449   0.12422   0.13369
  Beta virt. eigenvalues --    0.14496   0.14659   0.15531   0.15886   0.16334
  Beta virt. eigenvalues --    0.16423   0.17377   0.17794   0.18794   0.19921
  Beta virt. eigenvalues --    0.20868   0.21366   0.22819   0.23306   0.23936
  Beta virt. eigenvalues --    0.24516   0.25240   0.26301   0.26536   0.27475
  Beta virt. eigenvalues --    0.28642   0.28975   0.29738   0.30263   0.30571
  Beta virt. eigenvalues --    0.30927   0.31654   0.32337   0.33015   0.34036
  Beta virt. eigenvalues --    0.34540   0.35228   0.35800   0.36353   0.37531
  Beta virt. eigenvalues --    0.37732   0.38816   0.41296   0.41725   0.42288
  Beta virt. eigenvalues --    0.43931   0.43937   0.44276   0.44785   0.45519
  Beta virt. eigenvalues --    0.46620   0.47626   0.48207   0.48560   0.48722
  Beta virt. eigenvalues --    0.48773   0.48969   0.49214   0.49947   0.50252
  Beta virt. eigenvalues --    0.50314   0.50656   0.51988   0.52105   0.52927
  Beta virt. eigenvalues --    0.52948   0.54224   0.54725   0.54976   0.55467
  Beta virt. eigenvalues --    0.56748   0.57275   0.58235   0.59332   0.60340
  Beta virt. eigenvalues --    0.60342   0.60453   0.61517   0.63529   0.64094
  Beta virt. eigenvalues --    0.66619   0.66837   0.67898   0.68409   0.68857
  Beta virt. eigenvalues --    0.70845   0.72366   0.73292   0.76200   0.76637
  Beta virt. eigenvalues --    0.77180   0.78489   0.78913   0.81016   0.81966
  Beta virt. eigenvalues --    0.83487   0.84310   0.85347   0.85862   0.87817
  Beta virt. eigenvalues --    0.88836   0.90142   0.92536   0.93910   0.94944
  Beta virt. eigenvalues --    0.95284   0.97825   0.97856   0.98594   0.99701
  Beta virt. eigenvalues --    1.02317   1.02456   1.03927   1.04831   1.05514
  Beta virt. eigenvalues --    1.07119   1.07837   1.08217   1.09540   1.10652
  Beta virt. eigenvalues --    1.12536   1.13834   1.15311   1.16684   1.16895
  Beta virt. eigenvalues --    1.17818   1.18624   1.19105   1.19637   1.19797
  Beta virt. eigenvalues --    1.20462   1.21905   1.23991   1.25865   1.25915
  Beta virt. eigenvalues --    1.26380   1.26865   1.28198   1.28997   1.29274
  Beta virt. eigenvalues --    1.30500   1.30590   1.33305   1.33339   1.33758
  Beta virt. eigenvalues --    1.34925   1.35306   1.36438   1.38156   1.39419
  Beta virt. eigenvalues --    1.39518   1.40031   1.40294   1.41905   1.42732
  Beta virt. eigenvalues --    1.42961   1.43227   1.43730   1.44612   1.45167
  Beta virt. eigenvalues --    1.45440   1.45556   1.47926   1.48471   1.48923
  Beta virt. eigenvalues --    1.50673   1.53320   1.54278   1.57192   1.57467
  Beta virt. eigenvalues --    1.58066   1.59214   1.60223   1.60551   1.62470
  Beta virt. eigenvalues --    1.64201   1.64842   1.65056   1.66284   1.68277
  Beta virt. eigenvalues --    1.70574   1.72594   1.75973   1.76847   1.77284
  Beta virt. eigenvalues --    1.79905   1.81707   1.82257   1.84690   1.86016
  Beta virt. eigenvalues --    1.88728   1.90042   1.90678   1.94028   1.94036
  Beta virt. eigenvalues --    1.96049   1.97294   1.98451   2.01075   2.02304
  Beta virt. eigenvalues --    2.05542   2.06484   2.08434   2.11394   2.11901
  Beta virt. eigenvalues --    2.12763   2.15584   2.16273   2.16815   2.18392
  Beta virt. eigenvalues --    2.18809   2.19890   2.20342   2.23419   2.24296
  Beta virt. eigenvalues --    2.24826   2.25445   2.27395   2.30025   2.31865
  Beta virt. eigenvalues --    2.36064   2.36485   2.38928   2.40273   2.44258
  Beta virt. eigenvalues --    2.44394   2.47691   2.47924   2.48698   2.50024
  Beta virt. eigenvalues --    2.50646   2.53062   2.53623   2.56176   2.57144
  Beta virt. eigenvalues --    2.60616   2.60845   2.61914   2.62092   2.62388
  Beta virt. eigenvalues --    2.64601   2.65318   2.65627   2.67521   2.69145
  Beta virt. eigenvalues --    2.69735   2.71858   2.72484   2.73411   2.74393
  Beta virt. eigenvalues --    2.74935   2.75864   2.75915   2.76927   2.76984
  Beta virt. eigenvalues --    2.79637   2.79691   2.81438   2.81706   2.82872
  Beta virt. eigenvalues --    2.82958   2.83660   2.84708   2.85105   2.86064
  Beta virt. eigenvalues --    2.86247   2.88069   2.88966   2.89986   2.92361
  Beta virt. eigenvalues --    2.92693   2.94490   2.95593   2.96087   2.96846
  Beta virt. eigenvalues --    2.97579   2.97674   2.98106   2.99043   3.02074
  Beta virt. eigenvalues --    3.02806   3.02839   3.03573   3.04625   3.05073
  Beta virt. eigenvalues --    3.07402   3.08461   3.09589   3.10674   3.10958
  Beta virt. eigenvalues --    3.11921   3.12555   3.13170   3.14376   3.14521
  Beta virt. eigenvalues --    3.16350   3.16527   3.17542   3.17859   3.20031
  Beta virt. eigenvalues --    3.20195   3.20326   3.20762   3.21387   3.23037
  Beta virt. eigenvalues --    3.23689   3.24070   3.24213   3.24989   3.25628
  Beta virt. eigenvalues --    3.26893   3.27175   3.27295   3.28835   3.29730
  Beta virt. eigenvalues --    3.30080   3.31089   3.31898   3.32200   3.34141
  Beta virt. eigenvalues --    3.34181   3.34955   3.36070   3.36076   3.37259
  Beta virt. eigenvalues --    3.37426   3.39018   3.39422   3.41585   3.42239
  Beta virt. eigenvalues --    3.43552   3.44769   3.45267   3.46656   3.46997
  Beta virt. eigenvalues --    3.47371   3.48101   3.48274   3.49133   3.51126
  Beta virt. eigenvalues --    3.52373   3.53059   3.53539   3.53821   3.55479
  Beta virt. eigenvalues --    3.56513   3.56691   3.57870   3.58381   3.60633
  Beta virt. eigenvalues --    3.62034   3.63074   3.64223   3.64631   3.65019
  Beta virt. eigenvalues --    3.65617   3.67263   3.68092   3.70494   3.71360
  Beta virt. eigenvalues --    3.71963   3.72323   3.75974   3.79517   3.79898
  Beta virt. eigenvalues --    3.80763   3.81850   3.82807   3.83086   3.83488
  Beta virt. eigenvalues --    3.85234   3.86864   3.90392   3.90853   3.91583
  Beta virt. eigenvalues --    3.93054   3.96020   3.96295   4.01094   4.01306
  Beta virt. eigenvalues --    4.03964   4.04029   4.06637   4.07914   4.09954
  Beta virt. eigenvalues --    4.10385   4.12569   4.13819   4.14156   4.14550
  Beta virt. eigenvalues --    4.16101   4.18651   4.18793   4.19623   4.20936
  Beta virt. eigenvalues --    4.21469   4.23730   4.25751   4.28850   4.29249
  Beta virt. eigenvalues --    4.31212   4.32257   4.33331   4.34893   4.39182
  Beta virt. eigenvalues --    4.39628   4.41213   4.42749   4.45288   4.48046
  Beta virt. eigenvalues --    4.48779   4.50556   4.51689   4.54427   4.57214
  Beta virt. eigenvalues --    4.57300   4.60380   4.61273   4.67741   4.67962
  Beta virt. eigenvalues --    4.70883   4.73156   4.75673   4.76519   4.78913
  Beta virt. eigenvalues --    4.80514   4.80789   4.84925   4.86468   4.87684
  Beta virt. eigenvalues --    4.91383   4.92872   4.93178   4.94345   4.98399
  Beta virt. eigenvalues --    4.98701   5.04441   5.07494   5.11141   5.12320
  Beta virt. eigenvalues --    5.17275   5.20428   5.22923   5.23050   5.25397
  Beta virt. eigenvalues --    5.28931   5.36850   5.38333   5.40145   5.41798
  Beta virt. eigenvalues --    5.45720   5.45808   5.51719   5.56191   5.71171
  Beta virt. eigenvalues --    5.71593   5.73863   5.76401   5.94339   6.01607
  Beta virt. eigenvalues --    7.95096   7.95700   8.03619   8.03723   8.05350
  Beta virt. eigenvalues --    8.10099   8.11134   8.14595   8.18725   8.20238
  Beta virt. eigenvalues --    8.34128   8.39721  34.77552  34.77712  34.81291
  Beta virt. eigenvalues --   34.81414  34.84598  34.91525  34.97954  34.99600
  Beta virt. eigenvalues --   35.02955  35.03203  35.16493  35.21721
          Condensed to atoms (all electrons):
               1          2          3          4          5          6
     1  C    5.157279  -0.004869   0.425431  -0.002519   0.001730  -0.009702
     2  C   -0.004869   5.384321  -0.002136   0.429872  -0.096675  -0.002828
     3  H    0.425431  -0.002136   0.497188   0.000043  -0.000041   0.000075
     4  H   -0.002519   0.429872   0.000043   0.476600  -0.019940  -0.003283
     5  C    0.001730  -0.096675  -0.000041  -0.019940   5.218294   0.516134
     6  C   -0.009702  -0.002828   0.000075  -0.003283   0.516134   5.384285
     7  H    0.000159  -0.003069   0.000003   0.000022   0.438228  -0.033521
     8  H    0.000114  -0.003292  -0.000126   0.000573  -0.035525   0.429892
     9  C    0.002950  -0.024528  -0.000009  -0.005209  -0.065681   0.244962
    10  H   -0.000045   0.003605  -0.000001  -0.000539  -0.007341  -0.049660
    11  H    0.000066  -0.007270   0.000004   0.000795   0.010184  -0.058970
    12  C   -0.000209   0.022057   0.000001   0.007588   0.282616  -0.066219
    13  H   -0.000001   0.000257   0.000000   0.000068  -0.038007   0.004888
    14  C    0.000129  -0.009702  -0.000000   0.000112  -0.044180  -0.004876
    15  H   -0.000000   0.000075  -0.000000  -0.000126   0.006469  -0.002137
    16  C   -0.000485   0.016517   0.000000  -0.000277  -0.001746  -0.069712
    17  H    0.000015   0.001408  -0.000000  -0.005589   0.010770  -0.003413
    18  H    0.000002   0.000095   0.000000   0.000509  -0.003278   0.012572
    19  C   -0.044198   0.516159   0.006468  -0.035489  -0.030825  -0.096640
    20  H    0.005038  -0.033527  -0.000141  -0.005944  -0.000009  -0.003065
    21  C    0.568944  -0.066240  -0.032764   0.006050   0.004319   0.022044
    22  H   -0.028978   0.004878  -0.006619  -0.000081   0.000062   0.000257
    23  C   -0.088609   0.244930   0.005601  -0.014742   0.009031  -0.024525
    24  H    0.013111  -0.058970  -0.000097  -0.004129   0.002416  -0.007272
    25  H    0.005648  -0.049658  -0.000013  -0.002295   0.000737   0.003605
    26  C    0.274423  -0.069721  -0.031670   0.005991  -0.010721   0.016520
    27  H   -0.032853   0.012573  -0.004300  -0.000085   0.000415   0.000095
    28  H   -0.032480  -0.003413   0.001189  -0.000224  -0.004761   0.001408
               7          8          9         10         11         12
     1  C    0.000159   0.000114   0.002950  -0.000045   0.000066  -0.000209
     2  C   -0.003069  -0.003292  -0.024528   0.003605  -0.007270   0.022057
     3  H    0.000003  -0.000126  -0.000009  -0.000001   0.000004   0.000001
     4  H    0.000022   0.000573  -0.005209  -0.000539   0.000795   0.007588
     5  C    0.438228  -0.035525  -0.065681  -0.007341   0.010184   0.282616
     6  C   -0.033521   0.429892   0.244962  -0.049660  -0.058970  -0.066219
     7  H    0.485681  -0.005948   0.003715  -0.000100  -0.000030  -0.037772
     8  H   -0.005948   0.476624  -0.014730  -0.002296  -0.004129   0.006050
     9  C    0.003715  -0.014730   4.964815   0.400774   0.461625   0.033500
    10  H   -0.000100  -0.002296   0.400774   0.576899  -0.021249   0.000630
    11  H   -0.000030  -0.004129   0.461625  -0.021249   0.530808  -0.004693
    12  C   -0.037772   0.006050   0.033500   0.000630  -0.004693   5.031659
    13  H   -0.003759  -0.000081   0.000166  -0.000114   0.000035   0.426492
    14  C    0.005044  -0.002520  -0.088601   0.005650   0.013110   0.568943
    15  H   -0.000141   0.000043   0.005601  -0.000013  -0.000097  -0.032756
    16  C   -0.001406   0.005993   0.344991  -0.025155  -0.054271  -0.052241
    17  H    0.000009  -0.000224  -0.029983   0.006893  -0.007220  -0.014015
    18  H    0.000042  -0.000085  -0.041991  -0.009882  -0.001052   0.005293
    19  C   -0.000009  -0.019933   0.009008   0.000737   0.002415   0.004321
    20  H    0.000004   0.000022   0.003099   0.000408  -0.002833  -0.000123
    21  C   -0.000123   0.007585  -0.003203  -0.000157  -0.000094  -0.000457
    22  H   -0.000002   0.000068  -0.000101  -0.000000  -0.000028  -0.000001
    23  C    0.003100  -0.005215   0.003628  -0.000140   0.000277  -0.003207
    24  H   -0.002837   0.000795   0.000277  -0.000032  -0.000010  -0.000094
    25  H    0.000408  -0.000538  -0.000140   0.000017  -0.000032  -0.000157
    26  C   -0.001780  -0.000272  -0.001692   0.000067  -0.000141   0.001277
    27  H   -0.000020   0.000509   0.000014  -0.000000  -0.000001  -0.000039
    28  H    0.002232  -0.005587   0.000480   0.000012   0.000007   0.000270
              13         14         15         16         17         18
     1  C   -0.000001   0.000129  -0.000000  -0.000485   0.000015   0.000002
     2  C    0.000257  -0.009702   0.000075   0.016517   0.001408   0.000095
     3  H    0.000000  -0.000000  -0.000000   0.000000  -0.000000   0.000000
     4  H    0.000068   0.000112  -0.000126  -0.000277  -0.005589   0.000509
     5  C   -0.038007  -0.044180   0.006469  -0.001746   0.010770  -0.003278
     6  C    0.004888  -0.004876  -0.002137  -0.069712  -0.003413   0.012572
     7  H   -0.003759   0.005044  -0.000141  -0.001406   0.000009   0.000042
     8  H   -0.000081  -0.002520   0.000043   0.005993  -0.000224  -0.000085
     9  C    0.000166  -0.088601   0.005601   0.344991  -0.029983  -0.041991
    10  H   -0.000114   0.005650  -0.000013  -0.025155   0.006893  -0.009882
    11  H    0.000035   0.013110  -0.000097  -0.054271  -0.007220  -0.001052
    12  C    0.426492   0.568943  -0.032756  -0.052241  -0.014015   0.005293
    13  H    0.496712  -0.028952  -0.006619   0.004962  -0.000455  -0.000127
    14  C   -0.028952   5.157322   0.425418   0.274434  -0.032484  -0.032861
    15  H   -0.006619   0.425418   0.497189  -0.031667   0.001188  -0.004299
    16  C    0.004962   0.274434  -0.031667   4.962791   0.396785   0.425498
    17  H   -0.000455  -0.032484   0.001188   0.396785   0.584218  -0.022835
    18  H   -0.000127  -0.032861  -0.004299   0.425498  -0.022835   0.544435
    19  C    0.000062   0.001729  -0.000041  -0.010717  -0.004761   0.000416
    20  H   -0.000002   0.000159   0.000003  -0.001779   0.002232  -0.000020
    21  C   -0.000001  -0.000209   0.000001   0.001276   0.000270  -0.000039
    22  H    0.000000  -0.000001   0.000000   0.000007  -0.000001  -0.000001
    23  C   -0.000101   0.002951  -0.000009  -0.001693   0.000480   0.000014
    24  H   -0.000028   0.000066   0.000004  -0.000141   0.000007  -0.000001
    25  H   -0.000000  -0.000045  -0.000001   0.000067   0.000012  -0.000000
    26  C    0.000007  -0.000485   0.000000   0.000537  -0.000009  -0.000002
    27  H   -0.000001   0.000002   0.000000  -0.000002   0.000001  -0.000000
    28  H   -0.000001   0.000015  -0.000000  -0.000009  -0.000013   0.000001
              19         20         21         22         23         24
     1  C   -0.044198   0.005038   0.568944  -0.028978  -0.088609   0.013111
     2  C    0.516159  -0.033527  -0.066240   0.004878   0.244930  -0.058970
     3  H    0.006468  -0.000141  -0.032764  -0.006619   0.005601  -0.000097
     4  H   -0.035489  -0.005944   0.006050  -0.000081  -0.014742  -0.004129
     5  C   -0.030825  -0.000009   0.004319   0.000062   0.009031   0.002416
     6  C   -0.096640  -0.003065   0.022044   0.000257  -0.024525  -0.007272
     7  H   -0.000009   0.000004  -0.000123  -0.000002   0.003100  -0.002837
     8  H   -0.019933   0.000022   0.007585   0.000068  -0.005215   0.000795
     9  C    0.009008   0.003099  -0.003203  -0.000101   0.003628   0.000277
    10  H    0.000737   0.000408  -0.000157  -0.000000  -0.000140  -0.000032
    11  H    0.002415  -0.002833  -0.000094  -0.000028   0.000277  -0.000010
    12  C    0.004321  -0.000123  -0.000457  -0.000001  -0.003207  -0.000094
    13  H    0.000062  -0.000002  -0.000001   0.000000  -0.000101  -0.000028
    14  C    0.001729   0.000159  -0.000209  -0.000001   0.002951   0.000066
    15  H   -0.000041   0.000003   0.000001   0.000000  -0.000009   0.000004
    16  C   -0.010717  -0.001779   0.001276   0.000007  -0.001693  -0.000141
    17  H   -0.004761   0.002232   0.000270  -0.000001   0.000480   0.000007
    18  H    0.000416  -0.000020  -0.000039  -0.000001   0.000014  -0.000001
    19  C    5.218303   0.438230   0.282658  -0.037979  -0.065673   0.010185
    20  H    0.438230   0.485578  -0.037752  -0.003758   0.003713  -0.000030
    21  C    0.282658  -0.037752   5.031735   0.426505   0.033504  -0.004695
    22  H   -0.037979  -0.003758   0.426505   0.496677   0.000166   0.000035
    23  C   -0.065673   0.003713   0.033504   0.000166   4.964834   0.461621
    24  H    0.010185  -0.000030  -0.004695   0.000035   0.461621   0.530812
    25  H   -0.007349  -0.000100   0.000632  -0.000114   0.400776  -0.021253
    26  C   -0.001728  -0.001404  -0.052241   0.004961   0.344984  -0.054265
    27  H   -0.003278   0.000042   0.005291  -0.000127  -0.041995  -0.001052
    28  H    0.010768   0.000009  -0.014019  -0.000455  -0.029984  -0.007219
              25         26         27         28
     1  C    0.005648   0.274423  -0.032853  -0.032480
     2  C   -0.049658  -0.069721   0.012573  -0.003413
     3  H   -0.000013  -0.031670  -0.004300   0.001189
     4  H   -0.002295   0.005991  -0.000085  -0.000224
     5  C    0.000737  -0.010721   0.000415  -0.004761
     6  C    0.003605   0.016520   0.000095   0.001408
     7  H    0.000408  -0.001780  -0.000020   0.002232
     8  H   -0.000538  -0.000272   0.000509  -0.005587
     9  C   -0.000140  -0.001692   0.000014   0.000480
    10  H    0.000017   0.000067  -0.000000   0.000012
    11  H   -0.000032  -0.000141  -0.000001   0.000007
    12  C   -0.000157   0.001277  -0.000039   0.000270
    13  H   -0.000000   0.000007  -0.000001  -0.000001
    14  C   -0.000045  -0.000485   0.000002   0.000015
    15  H   -0.000001   0.000000   0.000000  -0.000000
    16  C    0.000067   0.000537  -0.000002  -0.000009
    17  H    0.000012  -0.000009   0.000001  -0.000013
    18  H   -0.000000  -0.000002  -0.000000   0.000001
    19  C   -0.007349  -0.001728  -0.003278   0.010768
    20  H   -0.000100  -0.001404   0.000042   0.000009
    21  C    0.000632  -0.052241   0.005291  -0.014019
    22  H   -0.000114   0.004961  -0.000127  -0.000455
    23  C    0.400776   0.344984  -0.041995  -0.029984
    24  H   -0.021253  -0.054265  -0.001052  -0.007219
    25  H    0.576891  -0.025149  -0.009881   0.006892
    26  C   -0.025149   4.962812   0.425495   0.396792
    27  H   -0.009881   0.425495   0.544424  -0.022831
    28  H    0.006892   0.396792  -0.022831   0.584195
          Atomic-Atomic Spin Densities.
               1          2          3          4          5          6
     1  C   -0.000004   0.000000   0.000000  -0.000000  -0.000000  -0.000000
     2  C    0.000000   0.000002  -0.000000  -0.000000  -0.000001  -0.000000
     3  H    0.000000  -0.000000   0.000000   0.000000  -0.000000   0.000000
     4  H   -0.000000  -0.000000   0.000000   0.000000  -0.000000   0.000000
     5  C   -0.000000  -0.000001  -0.000000  -0.000000   0.000004  -0.000000
     6  C   -0.000000  -0.000000   0.000000   0.000000  -0.000000  -0.000002
     7  H    0.000000  -0.000000  -0.000000  -0.000000  -0.000000  -0.000000
     8  H   -0.000000  -0.000000  -0.000000   0.000000   0.000000   0.000000
     9  C    0.000000  -0.000000  -0.000000  -0.000000   0.000000   0.000000
    10  H   -0.000000   0.000000  -0.000000  -0.000000  -0.000000  -0.000000
    11  H    0.000000  -0.000000   0.000000  -0.000000   0.000000  -0.000000
    12  C    0.000000   0.000000  -0.000000   0.000000  -0.000000   0.000000
    13  H    0.000000   0.000000  -0.000000  -0.000000   0.000000  -0.000000
    14  C   -0.000000   0.000000  -0.000000   0.000000  -0.000000  -0.000000
    15  H    0.000000  -0.000000  -0.000000   0.000000  -0.000000   0.000000
    16  C   -0.000000   0.000000   0.000000  -0.000000  -0.000000  -0.000000
    17  H   -0.000000  -0.000000  -0.000000  -0.000000   0.000000  -0.000000
    18  H    0.000000   0.000000   0.000000   0.000000  -0.000000   0.000000
    19  C    0.000000   0.000000   0.000000  -0.000000  -0.000000   0.000001
    20  H   -0.000000   0.000000  -0.000000  -0.000000   0.000000   0.000000
    21  C    0.000000  -0.000000  -0.000000   0.000000   0.000000  -0.000000
    22  H   -0.000000   0.000000  -0.000000  -0.000000   0.000000  -0.000000
    23  C   -0.000000  -0.000000   0.000000  -0.000000   0.000000   0.000000
    24  H   -0.000000  -0.000000  -0.000000   0.000000   0.000000   0.000000
    25  H   -0.000000   0.000000  -0.000000  -0.000000  -0.000000  -0.000000
    26  C    0.000000   0.000000  -0.000000   0.000000  -0.000000  -0.000000
    27  H    0.000000  -0.000000   0.000000   0.000000  -0.000000  -0.000000
    28  H    0.000000   0.000000  -0.000000  -0.000000   0.000000   0.000000
               7          8          9         10         11         12
     1  C    0.000000  -0.000000   0.000000  -0.000000   0.000000   0.000000
     2  C   -0.000000  -0.000000  -0.000000   0.000000  -0.000000   0.000000
     3  H   -0.000000  -0.000000  -0.000000  -0.000000   0.000000  -0.000000
     4  H   -0.000000   0.000000  -0.000000  -0.000000  -0.000000   0.000000
     5  C   -0.000000   0.000000   0.000000  -0.000000   0.000000  -0.000000
     6  C   -0.000000   0.000000   0.000000  -0.000000  -0.000000   0.000000
     7  H   -0.000000   0.000000  -0.000000   0.000000  -0.000000  -0.000000
     8  H    0.000000  -0.000000   0.000000   0.000000  -0.000000  -0.000000
     9  C   -0.000000   0.000000  -0.000002  -0.000000   0.000000  -0.000000
    10  H    0.000000   0.000000  -0.000000   0.000001  -0.000000   0.000000
    11  H   -0.000000  -0.000000   0.000000  -0.000000   0.000000  -0.000000
    12  C   -0.000000  -0.000000  -0.000000   0.000000  -0.000000  -0.000002
    13  H    0.000000   0.000000   0.000000   0.000000  -0.000000   0.000000
    14  C    0.000000   0.000000   0.000000   0.000000   0.000000  -0.000000
    15  H    0.000000  -0.000000  -0.000000   0.000000   0.000000   0.000000
    16  C   -0.000000  -0.000000   0.000000  -0.000000  -0.000000   0.000000
    17  H    0.000000   0.000000   0.000000   0.000000   0.000000  -0.000000
    18  H   -0.000000  -0.000000   0.000000  -0.000000  -0.000000   0.000000
    19  C   -0.000000   0.000000  -0.000000   0.000000  -0.000000  -0.000000
    20  H    0.000000   0.000000   0.000000   0.000000  -0.000000  -0.000000
    21  C    0.000000  -0.000000   0.000000   0.000000   0.000000  -0.000000
    22  H    0.000000   0.000000   0.000000   0.000000   0.000000  -0.000000
    23  C   -0.000000   0.000000  -0.000000   0.000000  -0.000000  -0.000000
    24  H    0.000000   0.000000   0.000000  -0.000000  -0.000000  -0.000000
    25  H   -0.000000   0.000000  -0.000000   0.000000   0.000000  -0.000000
    26  C   -0.000000   0.000000   0.000000  -0.000000   0.000000   0.000000
    27  H    0.000000  -0.000000   0.000000   0.000000   0.000000   0.000000
    28  H   -0.000000   0.000000  -0.000000   0.000000  -0.000000  -0.000000
              13         14         15         16         17         18
     1  C    0.000000  -0.000000   0.000000  -0.000000  -0.000000   0.000000
     2  C    0.000000   0.000000  -0.000000   0.000000  -0.000000   0.000000
     3  H   -0.000000  -0.000000  -0.000000   0.000000  -0.000000   0.000000
     4  H   -0.000000   0.000000   0.000000  -0.000000  -0.000000   0.000000
     5  C    0.000000  -0.000000  -0.000000  -0.000000   0.000000  -0.000000
     6  C   -0.000000  -0.000000   0.000000  -0.000000  -0.000000   0.000000
     7  H    0.000000   0.000000   0.000000  -0.000000   0.000000  -0.000000
     8  H    0.000000   0.000000  -0.000000  -0.000000   0.000000  -0.000000
     9  C    0.000000   0.000000  -0.000000   0.000000   0.000000   0.000000
    10  H    0.000000   0.000000   0.000000  -0.000000   0.000000  -0.000000
    11  H   -0.000000   0.000000   0.000000  -0.000000   0.000000  -0.000000
    12  C    0.000000  -0.000000   0.000000   0.000000  -0.000000   0.000000
    13  H   -0.000000   0.000000   0.000000  -0.000000   0.000000   0.000000
[...]
     2  C    0.000000   0.000000  -0.000000   0.000000
     3  H   -0.000000  -0.000000   0.000000  -0.000000
     4  H   -0.000000   0.000000   0.000000  -0.000000
     5  C   -0.000000  -0.000000  -0.000000   0.000000
     6  C   -0.000000  -0.000000  -0.000000   0.000000
     7  H   -0.000000  -0.000000   0.000000  -0.000000
     8  H    0.000000   0.000000  -0.000000   0.000000
     9  C   -0.000000   0.000000   0.000000  -0.000000
    10  H    0.000000  -0.000000   0.000000   0.000000
    11  H    0.000000   0.000000   0.000000  -0.000000
    12  C   -0.000000   0.000000   0.000000  -0.000000
    13  H   -0.000000   0.000000   0.000000  -0.000000
    14  C    0.000000   0.000000  -0.000000   0.000000
    15  H    0.000000  -0.000000  -0.000000   0.000000
    16  C    0.000000  -0.000000  -0.000000   0.000000
    17  H   -0.000000  -0.000000   0.000000  -0.000000
    18  H   -0.000000   0.000000   0.000000  -0.000000
    19  C    0.000000   0.000000   0.000000  -0.000000
    20  H   -0.000000   0.000000   0.000000  -0.000000
    21  C   -0.000000  -0.000000  -0.000000   0.000000
    22  H   -0.000000   0.000000  -0.000000  -0.000000
    23  C    0.000000  -0.000000  -0.000000  -0.000000
    24  H    0.000000   0.000000   0.000000  -0.000000
    25  H   -0.000001   0.000000   0.000000  -0.000000
    26  C    0.000000  -0.000000  -0.000000   0.000000
    27  H    0.000000  -0.000000  -0.000000   0.000000
    28  H   -0.000000   0.000000   0.000000  -0.000000
 Mulliken charges and spin densities:
               1          2
     1  C   -0.210090  -0.000003
     2  C   -0.200847   0.000001
     3  H    0.141915   0.000000
     4  H    0.172250   0.000000
     5  C   -0.142677   0.000003
     6  C   -0.200915  -0.000001
     7  H    0.151869  -0.000000
     8  H    0.172235  -0.000000
     9  C   -0.203737  -0.000002
    10  H    0.121032   0.000001
    11  H    0.142794   0.000000
    12  C   -0.178715  -0.000002
    13  H    0.144600  -0.000000
    14  C   -0.210170   0.000003
    15  H    0.141917  -0.000000
    16  C   -0.182558   0.000000
    17  H    0.116715   0.000000
    18  H    0.127596  -0.000000
    19  C   -0.142837  -0.000003
    20  H    0.151953   0.000000
    21  C   -0.178821   0.000002
    22  H    0.144628   0.000000
    23  C   -0.203717   0.000002
    24  H    0.142796  -0.000000
    25  H    0.121044  -0.000001
    26  C   -0.182586  -0.000000
    27  H    0.127601   0.000000
    28  H    0.116727  -0.000000
 Sum of Mulliken charges =  -0.00000   0.00000
 Mulliken charges and spin densities with hydrogens summed into heavy atoms:
               1          2
     1  C   -0.068176  -0.000003
     2  C   -0.028597   0.000002
     5  C    0.009192   0.000003
     6  C   -0.028680  -0.000002
     9  C    0.060089  -0.000001
    12  C   -0.034115  -0.000002
    14  C   -0.068253   0.000003
    16  C    0.061753   0.000000
    19  C    0.009116  -0.000003
    21  C   -0.034194   0.000002
    23  C    0.060122   0.000001
    26  C    0.061742  -0.000000
 Electronic spatial extent (au):  <R**2>=           2199.8818
 Charge=             -0.0000 electrons
 Dipole moment (field-independent basis, Debye):
    X=             -0.0001    Y=             -0.0006    Z=             -0.0000  Tot=              0.0006
 Quadrupole moment (field-independent basis, Debye-Ang):
   XX=            -72.4908   YY=            -70.0899   ZZ=            -76.9783
   XY=             -3.2404   XZ=             -3.1738   YZ=             -1.2247
 Traceless Quadrupole moment (field-independent basis, Debye-Ang):
   XX=              0.6955   YY=              3.0964   ZZ=             -3.7920
   XY=             -3.2404   XZ=             -3.1738   YZ=             -1.2247
 Octapole moment (field-independent basis, Debye-Ang**2):
  XXX=             -0.0015  YYY=             -0.0058  ZZZ=              0.0003  XYY=             -0.0021
  XXY=             -0.0004  XXZ=             -0.0004  XZZ=              0.0003  YZZ=             -0.0004
  YYZ=             -0.0013  XYZ=             -0.0011
 Hexadecapole moment (field-independent basis, Debye-Ang**3):
 XXXX=          -2039.2420 YYYY=           -625.1782 ZZZZ=           -327.5368 XXXY=           -100.7747
 XXXZ=           -118.1330 YYYX=            -57.6109 YYYZ=             -1.4151 ZZZX=            -67.7949
 ZZZY=            -10.6865 XXYY=           -441.7433 XXZZ=           -419.0224 YYZZ=           -173.9380
 XXYZ=            -19.9964 YYXZ=            -24.9877 ZZXY=            -41.8196
 N-N= 6.908798975035D+02 E-N=-2.463528001445D+03  KE= 4.642777381923D+02
                          Isotropic Fermi Contact Couplings
        Atom                 a.u.       MegaHertz       Gauss      10(-4) cm-1
     1  C(13)             -0.00000      -0.00018      -0.00006      -0.00006
     2  C(13)             -0.00000      -0.00016      -0.00006      -0.00005
     3  H(1)               0.00000       0.00019       0.00007       0.00006
     4  H(1)               0.00000       0.00024       0.00008       0.00008
     5  C(13)              0.00000       0.00020       0.00007       0.00007
     6  C(13)              0.00000       0.00017       0.00006       0.00006
     7  H(1)              -0.00000      -0.00006      -0.00002      -0.00002
     8  H(1)              -0.00000      -0.00024      -0.00009      -0.00008
     9  C(13)             -0.00000      -0.00042      -0.00015      -0.00014
    10  H(1)               0.00000       0.00029       0.00010       0.00010
    11  H(1)               0.00000       0.00021       0.00008       0.00007
    12  C(13)             -0.00000      -0.00022      -0.00008      -0.00007
    13  H(1)              -0.00000      -0.00006      -0.00002      -0.00002
    14  C(13)              0.00000       0.00017       0.00006       0.00006
    15  H(1)              -0.00000      -0.00018      -0.00007      -0.00006
    16  C(13)              0.00000       0.00004       0.00002       0.00001
    17  H(1)               0.00000       0.00006       0.00002       0.00002
    18  H(1)              -0.00000      -0.00002      -0.00001      -0.00001
    19  C(13)             -0.00000      -0.00020      -0.00007      -0.00007
    20  H(1)               0.00000       0.00006       0.00002       0.00002
    21  C(13)              0.00000       0.00023       0.00008       0.00008
    22  H(1)               0.00000       0.00005       0.00002       0.00002
    23  C(13)              0.00000       0.00042       0.00015       0.00014
    24  H(1)              -0.00000      -0.00021      -0.00007      -0.00007
    25  H(1)              -0.00000      -0.00028      -0.00010      -0.00009
    26  C(13)             -0.00000      -0.00004      -0.00001      -0.00001
    27  H(1)               0.00000       0.00002       0.00001       0.00001
    28  H(1)              -0.00000      -0.00007      -0.00003      -0.00002
 --------------------------------------------------------
       Center         ----  Spin Dipole Couplings  ----
                      3XX-RR        3YY-RR        3ZZ-RR
 --------------------------------------------------------
     1   Atom        0.000000      0.000001     -0.000002
     2   Atom       -0.000001     -0.000001      0.000002
     3   Atom       -0.000000      0.000000     -0.000000
     4   Atom       -0.000000     -0.000000      0.000000
     5   Atom       -0.000001     -0.000002      0.000003
     6   Atom        0.000001      0.000001     -0.000002
     7   Atom       -0.000000      0.000000     -0.000000
     8   Atom        0.000000      0.000000     -0.000000
     9   Atom        0.000000      0.000000     -0.000000
    10   Atom        0.000000      0.000000     -0.000000
    11   Atom        0.000000     -0.000000      0.000000
    12   Atom        0.000001      0.000001     -0.000002
    13   Atom        0.000000     -0.000000     -0.000000
    14   Atom       -0.000000     -0.000001      0.000002
    15   Atom        0.000000     -0.000000      0.000000
    16   Atom        0.000000     -0.000000      0.000000
    17   Atom       -0.000000      0.000000     -0.000000
    18   Atom       -0.000000      0.000000     -0.000000
    19   Atom        0.000001      0.000002     -0.000003
    20   Atom        0.000000     -0.000000      0.000000
    21   Atom       -0.000001     -0.000001      0.000002
    22   Atom       -0.000000      0.000000      0.000000
    23   Atom       -0.000000     -0.000000      0.000000
    24   Atom       -0.000000      0.000000     -0.000000
    25   Atom       -0.000000     -0.000000      0.000000
    26   Atom       -0.000000      0.000000     -0.000000
    27   Atom        0.000000     -0.000000      0.000000
    28   Atom        0.000000     -0.000000      0.000000
 --------------------------------------------------------
                        XY            XZ            YZ
 --------------------------------------------------------
     1   Atom        0.000000     -0.000002      0.000000
     2   Atom        0.000000      0.000002      0.000000
     3   Atom       -0.000000      0.000000      0.000000
     4   Atom       -0.000000      0.000000      0.000000
     5   Atom        0.000000      0.000002      0.000001
     6   Atom       -0.000000     -0.000002     -0.000000
     7   Atom       -0.000000      0.000000      0.000000
     8   Atom        0.000000     -0.000000     -0.000000
     9   Atom        0.000000     -0.000000      0.000000
    10   Atom        0.000000     -0.000000     -0.000000
    11   Atom       -0.000000     -0.000000     -0.000000
    12   Atom        0.000000     -0.000001     -0.000000
    13   Atom       -0.000000     -0.000000      0.000000
    14   Atom       -0.000000      0.000001     -0.000000
    15   Atom        0.000000     -0.000000     -0.000000
    16   Atom       -0.000000     -0.000000     -0.000000
    17   Atom        0.000000      0.000000      0.000000
    18   Atom       -0.000000      0.000000     -0.000000
    19   Atom       -0.000000     -0.000002     -0.000001
    20   Atom        0.000000     -0.000000     -0.000000
    21   Atom       -0.000000      0.000001     -0.000000
    22   Atom        0.000000      0.000000     -0.000000
    23   Atom       -0.000000      0.000000     -0.000000
    24   Atom        0.000000      0.000000      0.000000
    25   Atom       -0.000000      0.000000      0.000000
    26   Atom        0.000000      0.000000      0.000000
    27   Atom        0.000000     -0.000000      0.000000
    28   Atom       -0.000000     -0.000000     -0.000000
 --------------------------------------------------------


 ---------------------------------------------------------------------------------
              Anisotropic Spin Dipole Couplings in Principal Axis System
 ---------------------------------------------------------------------------------

       Atom             a.u.   MegaHertz   Gauss  10(-4) cm-1        Axes

              Baa    -0.0000    -0.000    -0.000    -0.000  0.4871 -0.0240  0.8730
     1 C(13)  Bbb     0.0000     0.000     0.000     0.000  0.8685  0.1178 -0.4814
              Bcc     0.0000     0.000     0.000     0.000 -0.0912  0.9928  0.0782
 
              Baa    -0.0000    -0.000    -0.000    -0.000  0.8328 -0.4206 -0.3599
     2 C(13)  Bbb    -0.0000    -0.000    -0.000    -0.000  0.3176  0.8955 -0.3117
              Bcc     0.0000     0.000     0.000     0.000  0.4534  0.1452  0.8794
 
              Baa    -0.0000    -0.000    -0.000    -0.000  0.8781  0.1503 -0.4542
     3 H(1)   Bbb     0.0000     0.000     0.000     0.000  0.4627 -0.0257  0.8861
              Bcc     0.0000     0.000     0.000     0.000 -0.1215  0.9883  0.0921
 
              Baa    -0.0000    -0.000    -0.000    -0.000  0.5081  0.8028 -0.3120
     4 H(1)   Bbb    -0.0000    -0.000    -0.000    -0.000  0.8541 -0.5163  0.0624
              Bcc     0.0000     0.000     0.000     0.000  0.1110  0.2982  0.9480
 
              Baa    -0.0000    -0.000    -0.000    -0.000  0.0496  0.9867 -0.1551
     5 C(13)  Bbb    -0.0000    -0.000    -0.000    -0.000  0.9349 -0.1005 -0.3403
              Bcc     0.0000     0.000     0.000     0.000  0.3514  0.1281  0.9274
 
              Baa    -0.0000    -0.000    -0.000    -0.000  0.4556  0.1445  0.8784
     6 C(13)  Bbb     0.0000     0.000     0.000     0.000  0.3172  0.8956 -0.3119
              Bcc     0.0000     0.000     0.000     0.000  0.8317 -0.4207 -0.3622
 
              Baa    -0.0000    -0.000    -0.000    -0.000  0.7276  0.5634 -0.3915
     7 H(1)   Bbb     0.0000     0.000     0.000     0.000  0.2573  0.3049  0.9170
              Bcc     0.0000     0.000     0.000     0.000 -0.6360  0.7679 -0.0769
 
              Baa    -0.0000    -0.000    -0.000    -0.000  0.1319  0.3064  0.9427
     8 H(1)   Bbb     0.0000     0.000     0.000     0.000  0.8138 -0.5764  0.0735
              Bcc     0.0000     0.000     0.000     0.000  0.5659  0.7575 -0.3254
 
              Baa    -0.0000    -0.000    -0.000    -0.000  0.6170 -0.1363  0.7750
     9 C(13)  Bbb     0.0000     0.000     0.000     0.000 -0.3781  0.8124  0.4439
              Bcc     0.0000     0.000     0.000     0.000  0.6902  0.5670 -0.4497
 
              Baa    -0.0000    -0.000    -0.000    -0.000  0.4604  0.0549  0.8860
    10 H(1)   Bbb     0.0000     0.000     0.000     0.000 -0.6333  0.7198  0.2844
              Bcc     0.0000     0.000     0.000     0.000  0.6221  0.6920 -0.3661
 
              Baa    -0.0000    -0.000    -0.000    -0.000  0.5354  0.8332  0.1382
    11 H(1)   Bbb     0.0000     0.000     0.000     0.000  0.7153 -0.5343  0.4504
              Bcc     0.0000     0.000     0.000     0.000 -0.4491  0.1423  0.8821
 
              Baa    -0.0000    -0.000    -0.000    -0.000  0.3534 -0.0018  0.9355
    12 C(13)  Bbb     0.0000     0.000     0.000     0.000  0.9322 -0.0824 -0.3523
              Bcc     0.0000     0.000     0.000     0.000  0.0777  0.9966 -0.0275
 
              Baa    -0.0000    -0.000    -0.000    -0.000  0.3111 -0.1853  0.9321
    13 H(1)   Bbb    -0.0000    -0.000    -0.000    -0.000  0.3875  0.9203  0.0536
              Bcc     0.0000     0.000     0.000     0.000  0.8678 -0.3446 -0.3581
 
              Baa    -0.0000    -0.000    -0.000    -0.000 -0.0832  0.9938  0.0742
    14 C(13)  Bbb    -0.0000    -0.000    -0.000    -0.000  0.8678  0.1088 -0.4849
              Bcc     0.0000     0.000     0.000     0.000  0.4899 -0.0241  0.8714
 
              Baa    -0.0000    -0.000    -0.000    -0.000 -0.1204  0.9884  0.0924
    15 H(1)   Bbb    -0.0000    -0.000    -0.000    -0.000  0.4622 -0.0265  0.8864
              Bcc     0.0000     0.000     0.000     0.000  0.8785  0.1494 -0.4537
 
              Baa    -0.0000    -0.000    -0.000    -0.000  0.2659  0.9523  0.1498
    16 C(13)  Bbb     0.0000     0.000     0.000     0.000  0.7015 -0.2977  0.6475
              Bcc     0.0000     0.000     0.000     0.000 -0.6612  0.0671  0.7472
 
              Baa    -0.0000    -0.000    -0.000    -0.000 -0.5860 -0.1042  0.8035
    17 H(1)   Bbb    -0.0000    -0.000    -0.000    -0.000  0.7033 -0.5580  0.4405
              Bcc     0.0000     0.000     0.000     0.000  0.4025  0.8233  0.4003
 
              Baa    -0.0000    -0.000    -0.000    -0.000  0.9247  0.3779 -0.0465
    18 H(1)   Bbb    -0.0000    -0.000    -0.000    -0.000 -0.0742  0.2985  0.9515
              Bcc     0.0000     0.000     0.000     0.000 -0.3735  0.8764 -0.3041
 
              Baa    -0.0000    -0.000    -0.000    -0.000  0.3517  0.1254  0.9277
    19 C(13)  Bbb     0.0000     0.000     0.000     0.000  0.9339 -0.1145 -0.3386
              Bcc     0.0000     0.000     0.000     0.000  0.0637  0.9855 -0.1574
 
              Baa    -0.0000    -0.000    -0.000    -0.000 -0.6360  0.7682 -0.0730
    20 H(1)   Bbb    -0.0000    -0.000    -0.000    -0.000  0.2567  0.2998  0.9188
              Bcc     0.0000     0.000     0.000     0.000  0.7277  0.5657 -0.3879
 
              Baa    -0.0000    -0.000    -0.000    -0.000  0.0659  0.9976 -0.0213
    21 C(13)  Bbb    -0.0000    -0.000    -0.000    -0.000  0.9318 -0.0691 -0.3563
              Bcc     0.0000     0.000     0.000     0.000  0.3569 -0.0036  0.9341
 
              Baa    -0.0000    -0.000    -0.000    -0.000  0.8601 -0.3630 -0.3584
    22 H(1)   Bbb     0.0000     0.000     0.000     0.000  0.4225  0.9007  0.1017
              Bcc     0.0000     0.000     0.000     0.000  0.2859 -0.2389  0.9280
 
              Baa    -0.0000    -0.000    -0.000    -0.000  0.6932  0.5642 -0.4485
    23 C(13)  Bbb    -0.0000    -0.000    -0.000    -0.000 -0.3738  0.8135  0.4455
              Bcc     0.0000     0.000     0.000     0.000  0.6162 -0.1412  0.7748
 
              Baa    -0.0000    -0.000    -0.000    -0.000 -0.4516  0.1401  0.8811
    24 H(1)   Bbb    -0.0000    -0.000    -0.000    -0.000  0.7195 -0.5268  0.4525
              Bcc     0.0000     0.000     0.000     0.000  0.5276  0.8384  0.1371
 
              Baa    -0.0000    -0.000    -0.000    -0.000  0.6314  0.6807 -0.3714
    25 H(1)   Bbb    -0.0000    -0.000    -0.000    -0.000 -0.6217  0.7307  0.2822
              Bcc     0.0000     0.000     0.000     0.000  0.4635  0.0527  0.8845
 
              Baa    -0.0000    -0.000    -0.000    -0.000 -0.6573  0.0646  0.7508
    26 C(13)  Bbb    -0.0000    -0.000    -0.000    -0.000  0.7062 -0.2949  0.6436
              Bcc     0.0000     0.000     0.000     0.000  0.2630  0.9533  0.1483
 
              Baa    -0.0000    -0.000    -0.000    -0.000 -0.3594  0.8823 -0.3040
    27 H(1)   Bbb     0.0000     0.000     0.000     0.000 -0.0643  0.3015  0.9513
              Bcc     0.0000     0.000     0.000     0.000  0.9309  0.3615 -0.0516
 
              Baa    -0.0000    -0.000    -0.000    -0.000  0.4075  0.8251  0.3914
    28 H(1)   Bbb     0.0000     0.000     0.000     0.000  0.6894 -0.5590  0.4607
              Bcc     0.0000     0.000     0.000     0.000 -0.5989 -0.0821  0.7966
 

 ---------------------------------------------------------------------------------

 No NMR shielding tensors so no spin-rotation constants.
 Leave Link  601 at Mon Aug  3 16:00:23 2020, MaxMem=  6442450944 cpu:               8.1 elap:               0.5
 (Enter /scratch/scicomp/CentOS/7.3.1611/Haswell/software/Gaussian/g16/l9999.exe)
 1\1\GINC-ATLAS-205\SP\UwB97XD\def2TZVP\C12H16\BOCHEN\03-Aug-2020\0\\#p
  uwb97xd guess=mix def2tzvp # scrf=(iefpcm,solvent=Cyclohexane,read) n
 osym 6d 10f\\endo-2 xp-pcm for eta=3\\0,1\C,0,-3.118578,-0.436876,0.24
 7024\C,0,-0.555477,-0.196368,-0.932206\H,0,-4.082851,-0.549917,0.72872
 5\H,0,0.380936,-0.117306,-1.466881\C,0,1.090379,1.404463,0.689379\C,0,
 0.555477,0.196368,0.932206\H,0,0.521599,2.308823,0.864348\H,0,-0.38093
 6,0.117306,1.466881\C,0,1.46681,-0.999509,0.989932\H,0,1.911942,-0.970
 218,1.991724\H,0,0.912395,-1.93462,0.924846\C,0,2.418004,1.516122,0.11
 2667\H,0,2.827281,2.505496,-0.054615\C,0,3.118578,0.436876,-0.247024\H
 ,0,4.082851,0.549917,-0.728725\C,0,2.591691,-0.957992,-0.044788\H,0,2.
 252888,-1.355863,-1.009385\H,0,3.400558,-1.620027,0.27188\C,0,-1.09037
 9,-1.404463,-0.689379\H,0,-0.521599,-2.308823,-0.864348\C,0,-2.418004,
 -1.516122,-0.112667\H,0,-2.827281,-2.505496,0.054615\C,0,-1.46681,0.99
 9509,-0.989932\H,0,-0.912395,1.93462,-0.924846\H,0,-1.911942,0.970219,
 -1.991724\C,0,-2.591691,0.957992,0.044788\H,0,-3.400558,1.620027,-0.27
 188\H,0,-2.252888,1.355863,1.009385\\Version=ES64L-G16RevB.01\HF=-466.
 8278095\S2=0.\S2-1=0.\S2A=0.\RMSD=6.936e-09\Dipole=-0.0000502,-0.00024
 5,-0.0000112\Quadrupole=0.5171232,2.3021322,-2.8192554,-2.4091776,-2.3
 596667,-0.9105227\PG=CI [X(C12H16)]\\@


 ONLY THE DAY DAWNS TO WHICH YOU ARE AWAKE.

                                 -- THOREAU
 Job cpu time:       0 days  2 hours 17 minutes 44.3 seconds.
 Elapsed time:       0 days  0 hours  5 minutes 47.8 seconds.
 File lengths (MBytes):  RWF=    633 Int=      0 D2E=      0 Chk=     23 Scr=      1
 Normal termination of Gaussian 16 at Mon Aug  3 16:00:24 2020.
