 Entering Gaussian System, Link 0=g16
 Input=meso-TS_46_2_xp-Ger.com
 Output=meso-TS_46_2_xp-Ger.log
 Initial command:
 /scratch/scicomp/CentOS/7.3.1611/Haswell/software/Gaussian/g16/l1.exe "/scratch/bochen/cyclohexadiene-dimerization/wb97xd-def2tzvp/xp-pcm/meso/Gau-271561.inp" -scrdir="/scratch/bochen/cyclohexadiene-dimerization/wb97xd-def2tzvp/xp-pcm/meso/"
 Entering Link 1 = /scratch/scicomp/CentOS/7.3.1611/Haswell/software/Gaussian/g16/l1.exe PID=    271565.
  
 Copyright (c) 1988-2017, Gaussian, Inc.  All Rights Reserved.
  
 This is part of the Gaussian(R) 16 program.  It is based on
 the Gaussian(R) 09 system (copyright 2009, Gaussian, Inc.),
 the Gaussian(R) 03 system (copyright 2003, Gaussian, Inc.),
 the Gaussian(R) 98 system (copyright 1998, Gaussian, Inc.),
 the Gaussian(R) 94 system (copyright 1995, Gaussian, Inc.),
 the Gaussian 92(TM) system (copyright 1992, Gaussian, Inc.),
 the Gaussian 90(TM) system (copyright 1990, Gaussian, Inc.),
 the Gaussian 88(TM) system (copyright 1988, Gaussian, Inc.),
 the Gaussian 86(TM) system (copyright 1986, Carnegie Mellon
 University), and the Gaussian 82(TM) system (copyright 1983,
 Carnegie Mellon University). Gaussian is a federally registered
 trademark of Gaussian, Inc.
  
 This software contains proprietary and confidential information,
 including trade secrets, belonging to Gaussian, Inc.
  
 This software is provided under written license and may be
 used, copied, transmitted, or stored only in accord with that
 written license.
  
 The following legend is applicable only to US Government
 contracts under FAR:
  
                    RESTRICTED RIGHTS LEGEND
  
 Use, reproduction and disclosure by the US Government is
 subject to restrictions as set forth in subparagraphs (a)
 and (c) of the Commercial Computer Software - Restricted
 Rights clause in FAR 52.227-19.
  
 Gaussian, Inc.
 340 Quinnipiac St., Bldg. 40, Wallingford CT 06492
  
  
 ---------------------------------------------------------------
 Warning -- This program may not be used in any manner that
 competes with the business of Gaussian, Inc. or will provide
 assistance to any competitor of Gaussian, Inc.  The licensee
 of this program is prohibited from giving any competitor of
 Gaussian, Inc. access to this program.  By using this program,
 the user acknowledges that Gaussian, Inc. is engaged in the
 business of creating and licensing software in the field of
 computational chemistry and represents and warrants to the
 licensee that it is not a competitor of Gaussian, Inc. and that
 it will not use this program in any manner prohibited above.
 ---------------------------------------------------------------
  

 Cite this work as:
 Gaussian 16, Revision B.01,
 M. J. Frisch, G. W. Trucks, H. B. Schlegel, G. E. Scuseria, 
 M. A. Robb, J. R. Cheeseman, G. Scalmani, V. Barone, 
 G. A. Petersson, H. Nakatsuji, X. Li, M. Caricato, A. V. Marenich, 
 J. Bloino, B. G. Janesko, R. Gomperts, B. Mennucci, H. P. Hratchian, 
 J. V. Ortiz, A. F. Izmaylov, J. L. Sonnenberg, D. Williams-Young, 
 F. Ding, F. Lipparini, F. Egidi, J. Goings, B. Peng, A. Petrone, 
 T. Henderson, D. Ranasinghe, V. G. Zakrzewski, J. Gao, N. Rega, 
 G. Zheng, W. Liang, M. Hada, M. Ehara, K. Toyota, R. Fukuda, 
 J. Hasegawa, M. Ishida, T. Nakajima, Y. Honda, O. Kitao, H. Nakai, 
 T. Vreven, K. Throssell, J. A. Montgomery, Jr., J. E. Peralta, 
 F. Ogliaro, M. J. Bearpark, J. J. Heyd, E. N. Brothers, K. N. Kudin, 
 V. N. Staroverov, T. A. Keith, R. Kobayashi, J. Normand, 
 K. Raghavachari, A. P. Rendell, J. C. Burant, S. S. Iyengar, 
 J. Tomasi, M. Cossi, J. M. Millam, M. Klene, C. Adamo, R. Cammi, 
 J. W. Ochterski, R. L. Martin, K. Morokuma, O. Farkas, 
 J. B. Foresman, and D. J. Fox, Gaussian, Inc., Wallingford CT, 2016.
 
 ******************************************
 Gaussian 16:  ES64L-G16RevB.01 20-Dec-2017
                 4-Aug-2020 
 ******************************************
 %chk=meso-TS_46_2_xp-12.chk
 %nproc=24
 Will use up to   24 processors via shared memory.
 %mem=48GB
 ----------------------------------------------------------------------
 #p uwb97xd guess=mix def2tzvp # scrf=(iefpcm,solvent=Cyclohexane,read)
  nosym 6d 10f
 ----------------------------------------------------------------------
 1/38=1,40=2,172=1/1;
 2/12=2,15=1,17=6,18=5,40=1/2;
 3/5=44,7=101,8=22,11=2,25=1,30=1,70=2203,72=17,74=-58,116=2/1,2,3;
 4/13=-1/1;
 5/5=2,38=5,53=17/2;
 6/7=2,8=2,9=2,10=2,28=1/1;
 99/5=1,9=1/99;
 Leave Link    1 at Tue Aug  4 03:19:10 2020, MaxMem=  6442450944 cpu:               4.4 elap:               0.2
 (Enter /scratch/scicomp/CentOS/7.3.1611/Haswell/software/Gaussian/g16/l101.exe)
 -----------------------
 endo-2 xp-pcm for eta=3
 -----------------------
 Symbolic Z-matrix:
 Charge =  0 Multiplicity = 1
 6                    -3.12768  -0.44142   0.25896 
 6                    -0.70838  -0.24553  -1.20242 
 1                    -4.07655  -0.53685   0.77411 
 1                     0.24896  -0.16047  -1.70099 
 6                     1.15231   1.4227    0.77243 
 6                     0.70838   0.24553   1.20242 
 1                     0.55899   2.31927   0.90552 
 1                    -0.24896   0.16047   1.70099 
 6                     1.54502  -0.9962    1.09283 
 1                     2.05966  -1.12686   2.05325 
 1                     0.90429  -1.87      0.9742 
 6                     2.45008   1.52831   0.10644 
 1                     2.85095   2.51433  -0.09607 
 6                     3.12768   0.44142  -0.25896 
 1                     4.07655   0.53685  -0.77411 
 6                     2.57933  -0.94193  -0.03718 
 1                     2.13576  -1.29167  -0.97757 
 1                     3.39266  -1.63764   0.17829 
 6                    -1.15231  -1.4227   -0.77243 
 1                    -0.55899  -2.31927  -0.90552 
 6                    -2.45008  -1.52831  -0.10644 
 1                    -2.85095  -2.51433   0.09607 
 6                    -1.54502   0.9962   -1.09283 
 1                    -0.90429   1.87     -0.9742 
 1                    -2.05966   1.12686  -2.05325 
 6                    -2.57933   0.94193   0.03718 
 1                    -3.39266   1.63764  -0.17829 
 1                    -2.13576   1.29167   0.97757 
 
 ITRead=  0  0  0  0  0  0  0  0  0  0  0  0  0  0  0  0  0  0  0  0
 ITRead=  0  0  0  0  0  0  0  0
 MicOpt= -1 -1 -1 -1 -1 -1 -1 -1 -1 -1 -1 -1 -1 -1 -1 -1 -1 -1 -1 -1
 MicOpt= -1 -1 -1 -1 -1 -1 -1 -1
 NAtoms=     28 NQM=       28 NQMF=       0 NMMI=      0 NMMIF=      0
                NMic=       0 NMicF=      0.
                    Isotopes and Nuclear Properties:
 (Nuclear quadrupole moments (NQMom) in fm**2, nuclear magnetic moments (NMagM)
  in nuclear magnetons)

  Atom         1           2           3           4           5           6           7           8           9          10
 IAtWgt=          12          12           1           1          12          12           1           1          12           1
 AtmWgt=  12.0000000  12.0000000   1.0078250   1.0078250  12.0000000  12.0000000   1.0078250   1.0078250  12.0000000   1.0078250
 NucSpn=           0           0           1           1           0           0           1           1           0           1
 AtZEff=  -0.0000000  -0.0000000  -0.0000000  -0.0000000  -0.0000000  -0.0000000  -0.0000000  -0.0000000  -0.0000000  -0.0000000
 NQMom=    0.0000000   0.0000000   0.0000000   0.0000000   0.0000000   0.0000000   0.0000000   0.0000000   0.0000000   0.0000000
 NMagM=    0.0000000   0.0000000   2.7928460   2.7928460   0.0000000   0.0000000   2.7928460   2.7928460   0.0000000   2.7928460
 AtZNuc=   6.0000000   6.0000000   1.0000000   1.0000000   6.0000000   6.0000000   1.0000000   1.0000000   6.0000000   1.0000000

  Atom        11          12          13          14          15          16          17          18          19          20
 IAtWgt=           1          12           1          12           1          12           1           1          12           1
 AtmWgt=   1.0078250  12.0000000   1.0078250  12.0000000   1.0078250  12.0000000   1.0078250   1.0078250  12.0000000   1.0078250
 NucSpn=           1           0           1           0           1           0           1           1           0           1
 AtZEff=  -0.0000000  -0.0000000  -0.0000000  -0.0000000  -0.0000000  -0.0000000  -0.0000000  -0.0000000  -0.0000000  -0.0000000
 NQMom=    0.0000000   0.0000000   0.0000000   0.0000000   0.0000000   0.0000000   0.0000000   0.0000000   0.0000000   0.0000000
 NMagM=    2.7928460   0.0000000   2.7928460   0.0000000   2.7928460   0.0000000   2.7928460   2.7928460   0.0000000   2.7928460
 AtZNuc=   1.0000000   6.0000000   1.0000000   6.0000000   1.0000000   6.0000000   1.0000000   1.0000000   6.0000000   1.0000000

  Atom        21          22          23          24          25          26          27          28
 IAtWgt=          12           1          12           1           1          12           1           1
 AtmWgt=  12.0000000   1.0078250  12.0000000   1.0078250   1.0078250  12.0000000   1.0078250   1.0078250
 NucSpn=           0           1           0           1           1           0           1           1
 AtZEff=  -0.0000000  -0.0000000  -0.0000000  -0.0000000  -0.0000000  -0.0000000  -0.0000000  -0.0000000
 NQMom=    0.0000000   0.0000000   0.0000000   0.0000000   0.0000000   0.0000000   0.0000000   0.0000000
 NMagM=    0.0000000   2.7928460   0.0000000   2.7928460   2.7928460   0.0000000   2.7928460   2.7928460
 AtZNuc=   6.0000000   1.0000000   6.0000000   1.0000000   1.0000000   6.0000000   1.0000000   1.0000000
 Leave Link  101 at Tue Aug  4 03:19:10 2020, MaxMem=  6442450944 cpu:               2.4 elap:               0.1
 (Enter /scratch/scicomp/CentOS/7.3.1611/Haswell/software/Gaussian/g16/l202.exe)
                          Input orientation:                          
 ---------------------------------------------------------------------
 Center     Atomic      Atomic             Coordinates (Angstroms)
 Number     Number       Type             X           Y           Z
 ---------------------------------------------------------------------
      1          6           0       -3.127681   -0.441423    0.258958
      2          6           0       -0.708381   -0.245534   -1.202422
      3          1           0       -4.076548   -0.536846    0.774111
      4          1           0        0.248962   -0.160472   -1.700991
      5          6           0        1.152306    1.422704    0.772430
      6          6           0        0.708381    0.245534    1.202422
      7          1           0        0.558988    2.319273    0.905524
      8          1           0       -0.248962    0.160472    1.700991
      9          6           0        1.545018   -0.996200    1.092829
     10          1           0        2.059657   -1.126856    2.053246
     11          1           0        0.904290   -1.869997    0.974198
     12          6           0        2.450083    1.528310    0.106435
     13          1           0        2.850945    2.514335   -0.096069
     14          6           0        3.127681    0.441423   -0.258958
     15          1           0        4.076548    0.536846   -0.774111
     16          6           0        2.579330   -0.941931   -0.037180
     17          1           0        2.135763   -1.291670   -0.977567
     18          1           0        3.392662   -1.637636    0.178291
     19          6           0       -1.152306   -1.422704   -0.772430
     20          1           0       -0.558988   -2.319273   -0.905524
     21          6           0       -2.450083   -1.528310   -0.106435
     22          1           0       -2.850945   -2.514335    0.096069
     23          6           0       -1.545018    0.996200   -1.092829
     24          1           0       -0.904290    1.869997   -0.974198
     25          1           0       -2.059657    1.126856   -2.053246
     26          6           0       -2.579330    0.941931    0.037180
     27          1           0       -3.392662    1.637636   -0.178291
     28          1           0       -2.135763    1.291670    0.977567
 ---------------------------------------------------------------------
                    Distance matrix (angstroms):
                    1          2          3          4          5
     1  C    0.000000
     2  C    2.833199   0.000000
     3  H    1.083899   3.916133   0.000000
     4  H    3.914339   1.082734   4.997782   0.000000
     5  C    4.696479   3.185155   5.583973   3.072505   0.000000
     6  C    4.009664   2.834014   4.867352   2.967442   1.329546
     7  H    4.650916   3.553575   5.446364   3.610979   1.083317
     8  H    3.275479   2.967442   3.999472   3.453175   2.102143
     9  C    4.778832   3.302951   5.649300   3.191180   2.471432
    10  H    5.531525   4.363271   6.295817   4.278646   2.993999
    11  H    4.336955   3.158680   5.160046   3.241692   3.308187
    12  C    5.917310   3.851691   6.878050   3.311149   1.462507
    13  H    6.678811   4.637855   7.619520   4.062103   2.198027
    14  C    6.338549   4.009664   7.343375   3.275479   2.434909
    15  H    7.343375   4.867352   8.367962   3.999472   3.424577
    16  C    5.736565   3.556937   6.717365   2.968090   2.878083
    17  H    5.473185   3.038769   6.498534   2.315809   3.376019
    18  H    6.629654   4.545643   7.573364   3.949249   3.838994
    19  C    2.434909   1.329546   3.424577   2.102143   3.974189
    20  H    3.388292   2.100205   4.286193   2.438437   4.443698
    21  C    1.331906   2.424918   2.098512   3.420297   4.738997
    22  H    2.097637   3.379958   2.423284   4.287134   5.655419
    23  C    2.529607   1.501291   3.499191   2.219485   3.307061
    24  H    3.436103   2.136806   4.348873   2.445613   2.735026
    25  H    2.991064   2.105541   3.850935   2.666649   4.288202
    26  C    1.504507   2.539121   2.229688   3.497966   3.833646
    27  H    2.141002   3.435191   2.470454   4.337422   4.648312
    28  H    2.122242   3.025354   2.674231   3.869148   3.297067
                    6          7          8          9         10
     6  C    0.000000
     7  H    2.100205   0.000000
     8  H    1.082734   2.438437   0.000000
     9  C    1.501291   3.464058   2.219485   0.000000
    10  H    2.105541   3.930023   2.666649   1.097417   0.000000
    11  H    2.136806   4.204038   2.445613   1.090012   1.746847
    12  C    2.424918   2.200092   3.420297   2.857493   3.315481
    13  H    3.379958   2.508845   4.287134   3.929730   4.301623
    14  C    2.833199   3.388292   3.914339   2.529607   2.991064
    15  H    3.916133   4.286193   4.997782   3.499191   3.850935
    16  C    2.539121   3.950433   3.497966   1.532862   2.161976
    17  H    3.025354   4.367054   3.869148   2.173205   3.036245
    18  H    3.435191   4.920946   4.337422   2.159076   2.356534
    19  C    3.185155   4.443698   3.072505   3.307061   4.288202
    20  H    3.553575   5.103516   3.610979   3.189166   4.127164
    21  C    3.851691   4.988233   3.311149   4.205022   5.016288
    22  H    4.637855   5.970480   4.062103   4.756338   5.465314
    23  C    3.302951   3.189166   3.191180   4.277275   5.234390
    24  H    3.158680   2.424126   3.241692   4.299627   5.189559
    25  H    4.363271   4.127164   4.278646   5.234390   6.237888
    26  C    3.556937   3.535553   2.968090   4.677712   5.464852
    27  H    4.545643   4.153892   3.949249   5.738774   6.507684
    28  H    3.038769   2.884933   2.315809   4.335410   4.960635
                   11         12         13         14         15
    11  H    0.000000
    12  C    3.832881   0.000000
    13  H    4.915008   1.083487   0.000000
    14  C    3.436103   1.331906   2.097637   0.000000
    15  H    4.348873   2.098512   2.423284   1.083899   0.000000
    16  C    2.165629   2.477785   3.467422   1.504507   2.229688
    17  H    2.379154   3.037457   3.971674   2.122242   2.674231
    18  H    2.622871   3.304063   4.196140   2.141002   2.470454
    19  C    2.735026   4.738997   5.655419   4.696479   5.583973
    20  H    2.424126   4.988233   5.970480   4.650916   5.446364
    21  C    3.540669   5.779262   6.666632   5.917310   6.878050
    22  H    3.909996   6.666632   7.604998   6.678811   7.619520
    23  C    4.299627   4.205022   4.756338   4.778832   5.649300
    24  H    4.588547   3.540669   3.909996   4.336955   5.160046
    25  H    5.189559   5.016288   5.465314   5.531525   6.295817
    26  C    4.573899   5.063954   5.654918   5.736565   6.717365
    27  H    5.665291   5.850700   6.305394   6.629654   7.573364
    28  H    4.386123   4.673848   5.245461   5.473185   6.498534
                   16         17         18         19         20
    16  C    0.000000
    17  H    1.096994   0.000000
    18  H    1.091761   1.742267   0.000000
    19  C    3.833646   3.297067   4.648312   0.000000
    20  H    3.535553   2.884933   4.153892   1.083317   0.000000
    21  C    5.063954   4.673848   5.850700   1.462507   2.200092
    22  H    5.654918   5.245461   6.305394   2.198027   2.508845
    23  C    4.677712   4.335410   5.738774   2.471432   3.464058
    24  H    4.573899   4.386123   5.665291   3.308187   4.204038
    25  H    5.464852   4.960635   6.507684   2.993999   3.930023
    26  C    5.492380   5.315147   6.506825   2.878083   3.950433
    27  H    6.506825   6.307389   7.542889   3.838994   4.920946
    28  H    5.315147   5.361169   6.307389   3.376019   4.367054
                   21         22         23         24         25
    21  C    0.000000
    22  H    1.083487   0.000000
    23  C    2.857493   3.929730   0.000000
    24  H    3.832881   4.915008   1.090012   0.000000
    25  H    3.315481   4.301623   1.097417   1.746847   0.000000
    26  C    2.477785   3.467422   1.532862   2.165629   2.161976
    27  H    3.304063   4.196140   2.159076   2.622871   2.356534
    28  H    3.037457   3.971674   2.173205   2.379154   3.036245
                   26         27         28
    26  C    0.000000
    27  H    1.091761   0.000000
    28  H    1.096994   1.742267   0.000000
 Symmetry turned off by external request.
 Stoichiometry    C12H16
 Framework group  CI[X(C12H16)]
 Deg. of freedom    39
 Full point group                 CI      NOp   2
 Rotational constants (GHZ):           1.7818269           0.6001515           0.5384826
 Leave Link  202 at Tue Aug  4 03:19:11 2020, MaxMem=  6442450944 cpu:               0.3 elap:               0.0
 (Enter /scratch/scicomp/CentOS/7.3.1611/Haswell/software/Gaussian/g16/l301.exe)
 Standard basis: def2TZVP (6D, 10F)
 Ernie: Thresh=  0.10000D-02 Tol=  0.10000D-05 Strict=F.
   528 basis functions,   740 primitive gaussians,   528 cartesian basis functions
    44 alpha electrons       44 beta electrons
       nuclear repulsion energy       678.2227150402 Hartrees.
 IExCor= 4639 DFT=T Ex+Corr=wB97XD ExCW=0 ScaHFX=  1.000000
 ScaDFX=  1.000000  1.000000  1.000000  1.000000 ScalE2=  1.000000  1.000000
 IRadAn=      5 IRanWt=     -1 IRanGd=            0 ICorTp=0 IEmpDi=121
 HFx  wShort=  0.000000 wLong=  0.200000 cFull=  0.222036 cShort=  0.000000 cLong=  0.777964
 DFx  wShort=  0.000000 wLong=  0.200000 cFull=  0.000000 cShort=  0.000000 cLong=  1.000000
 NAtoms=   28 NActive=   28 NUniq=   28 SFac= 1.00D+00 NAtFMM=   60 NAOKFM=F Big=F
 Integral buffers will be    131072 words long.
 Raffenetti 2 integral format.
 Two-electron integral symmetry is turned off.
 R6Disp:  Grimme-D2 Dispersion energy=       -0.0224280950 Hartrees.
 Nuclear repulsion after empirical dispersion term =      678.2002869452 Hartrees.
 Using the following non-standard input for PCM:
 qrep pcmdoc geomview  nodis nocav g03defaults tsare=0.075
 Warning! Using old PCM defaults because the g03defaults keyword was found.
 These settings can be overridden by following keywords.
 nsfe=28
 NVESolv=36  SolvMW=84.1595   Rsolv=2.815
 eps=2.0165 RhoS=0.778099999999998
 --- end of non-standard input.
 Reading user-defined spheres from input:
 ISph  on   Nord    Re0     Alpha      Xe            Ye            Ze
 --- end of user-defined spheres data.
 ------------------------------------------------------------------------------
 Polarizable Continuum Model (PCM)
 =================================
 Model                : PCM.
 Atomic radii         : UA0 (Simple United Atom Topological Model).
 Polarization charges : Total charges.
 Charge compensation  : None.
 Solution method      : On-the-fly selection.
 Cavity type          : SES (Solvent Excluding Surface) (Alpha=1.000).
 Cavity algorithm     : GePol (RMin=0.200 OFac=0.890).
                        User-defined sphere list used, NSphG=   28.
                        Tesserae with average area of 0.075 Ang**2.
                        Smoothing algorithm: None.
                        Polarization charges: point-like.
                        Self-potential: constant (ISelfS= 1).
                        Self-field    : global E.n sum rule (ISelfD= 3).
 Solvent              : CycloHexane, Eps=   2.016500 Eps(inf)=   2.035188
                        RSolv=   2.815000 Ang.
 ------------------------------------------------------------------------------
 GePol: Number of generator spheres                  =      28
 GePol: Total number of spheres                      =     186
 GePol: Number of exposed spheres                    =     131 ( 70.43%)
 GePol: Number of tesserae                           =    4693
 GePol: Average area of tesserae                     =       0.05 Ang**2
 GePol: Minimum area of tessera                      =   0.10D-02 Ang**2
 GePol: Maximum area of tessera                      =    0.12395 Ang**2
 GePol: Number of small tesserae                     =       0
 GePol: Fraction of small tesserae (<1% of avg)      =       0.00%
 GePol: Total count of vertices                      =   16627
 GePol: Maximum number of vertices in a tessera      =       7
 GePol: Cavity surface area                          =    221.445 Ang**2
 GePol: Cavity volume                                =    251.717 Ang**3
 Leave Link  301 at Tue Aug  4 03:19:11 2020, MaxMem=  6442450944 cpu:               7.9 elap:               0.4
 (Enter /scratch/scicomp/CentOS/7.3.1611/Haswell/software/Gaussian/g16/l302.exe)
 NPDir=0 NMtPBC=     1 NCelOv=     1 NCel=       1 NClECP=     1 NCelD=      1
         NCelK=      1 NCelE2=     1 NClLst=     1 CellRange=     0.0.
 One-electron integrals computed using PRISM.
   1 Symmetry operations used in ECPInt.
 ECPInt:  NShTT=   19306 NPrTT=   56928 LenC2=   18480 LenP2D=   41966.
 LDataN:  DoStor=T MaxTD1= 6 Len=  172
 NBasis=   528 RedAO= T EigKep=  1.82D-05  NBF=   528
 NBsUse=   528 1.00D-06 EigRej= -1.00D+00 NBFU=   528
 Precomputing XC quadrature grid using
 IXCGrd= 4 IRadAn=           5 IRanWt=          -1 IRanGd=           0 AccXCQ= 0.00D+00.
 Generated NRdTot=       0 NPtTot=           0 NUsed=           0 NTot=          32
 NSgBfM=   526   526   526   526   526 MxSgAt=    28 MxSgA2=    28.
 Leave Link  302 at Tue Aug  4 03:19:12 2020, MaxMem=  6442450944 cpu:              12.6 elap:               0.6
 (Enter /scratch/scicomp/CentOS/7.3.1611/Haswell/software/Gaussian/g16/l303.exe)
 DipDrv:  MaxL=1.
 Leave Link  303 at Tue Aug  4 03:19:12 2020, MaxMem=  6442450944 cpu:               1.5 elap:               0.1
 (Enter /scratch/scicomp/CentOS/7.3.1611/Haswell/software/Gaussian/g16/l401.exe)
 ExpMin= 9.52D-02 ExpMax= 1.36D+04 ExpMxC= 4.63D+02 IAcc=3 IRadAn=         5 AccDes= 0.00D+00
 Harris functional with IExCor= 4639 and IRadAn=       5 diagonalized for initial guess.
 HarFok:  IExCor= 4639 AccDes= 0.00D+00 IRadAn=         5 IDoV= 1 UseB2=F ITyADJ=14
 ICtDFT=  3500011 ScaDFX=  1.000000  1.000000  1.000000  1.000000
 FoFCou: FMM=F IPFlag=           0 FMFlag=      100000 FMFlg1=           0
         NFxFlg=           0 DoJE=T BraDBF=F KetDBF=T FulRan=T
         wScrn=  0.000000 ICntrl=       500 IOpCl=  0 I1Cent=   200000004 NGrid=           0
         NMat0=    1 NMatS0=      1 NMatT0=    0 NMatD0=    1 NMtDS0=    0 NMtDT0=    0
 Symmetry not used in FoFCou.
 Harris En= -444.654531435927    
 JPrj=0 DoOrth=F DoCkMO=T.
 Mixing orbitals, IMix= 1 IMixAn=  0 NRI=1 NE=   44 Coef=  7.07106781D-01  7.07106781D-01
 Mixing orbitals, IMix= 1 IMixAn=  0 NRI=1 NE=   44 Coef= -7.07106781D-01  7.07106781D-01
 Initial guess <Sx>= 0.0000 <Sy>= 0.0000 <Sz>= 0.0000 <S**2>= 1.0000 S= 0.6180
 Leave Link  401 at Tue Aug  4 03:19:14 2020, MaxMem=  6442450944 cpu:              48.9 elap:               2.1
 (Enter /scratch/scicomp/CentOS/7.3.1611/Haswell/software/Gaussian/g16/l502.exe)
 Two-electron integral symmetry not used.
 UHF open shell SCF:
 Using DIIS extrapolation, IDIIS=  1040.
 NGot=  6442450944 LenX=  6441877030 LenY=  6441597718
 Requested convergence on RMS density matrix=1.00D-08 within 128 cycles.
 Requested convergence on MAX density matrix=1.00D-06.
 Requested convergence on             energy=1.00D-06.
 No special actions if energy rises.
 Fock matrices will be formed incrementally for  20 cycles.

 Cycle   1  Pass 1  IDiag  1:
 FoFJK:  IHMeth= 1 ICntrl=       0 DoSepK=T KAlg= 0 I1Cent=           0 FoldK=F
 IRaf=         1 NMat=       1 IRICut=       1 DoRegI=T DoRafI=F ISym2E= 0 IDoP0=0 IntGTp=1.
 FoFCou: FMM=F IPFlag=           0 FMFlag=      100000 FMFlg1=           0
         NFxFlg=           0 DoJE=T BraDBF=F KetDBF=F FulRan=T
         wScrn=  0.000000 ICntrl=       500 IOpCl=  0 I1Cent=           0 NGrid=           0
         NMat0=    1 NMatS0=      1 NMatT0=    0 NMatD0=    1 NMtDS0=    0 NMtDT0=    0
 Symmetry not used in FoFCou.
 Inv3:  Mode=1 IEnd=    66072747.
 Iteration    1 A*A^-1 deviation from unit magnitude is 3.11D-15 for      5.
 Iteration    1 A*A^-1 deviation from orthogonality  is 2.54D-15 for   2056    876.
 Iteration    1 A^-1*A deviation from unit magnitude is 3.11D-15 for   1020.
 Iteration    1 A^-1*A deviation from orthogonality  is 3.70D-15 for   2299    962.
 E= -466.571440999705    
 DIIS: error= 4.97D-02 at cycle   1 NSaved=   1.
 NSaved= 1 IEnMin= 1 EnMin= -466.571440999705     IErMin= 1 ErrMin= 4.97D-02
 ErrMax= 4.97D-02  0.00D+00 EMaxC= 1.00D-01 BMatC= 4.11D+00 BMatP= 4.11D+00
 IDIUse=3 WtCom= 5.03D-01 WtEn= 4.97D-01
 Coeff-Com:  0.100D+01
 Coeff-En:   0.100D+01
 Coeff:      0.100D+01
 Gap=     0.182 Goal=   None    Shift=    0.000
 Gap=     0.182 Goal=   None    Shift=    0.000
 GapD=    0.182 DampG=1.000 DampE=0.500 DampFc=0.5000 IDamp=-1.
 Damping current iteration by 5.00D-01
 RMSDP=1.70D-03 MaxDP=9.27D-02              OVMax= 3.43D-01

 Cycle   2  Pass 1  IDiag  1:
 RMSU=  8.21D-04    CP:  9.65D-01
 E= -466.681533204271     Delta-E=       -0.110092204566 Rises=F Damp=T
 DIIS: error= 2.37D-02 at cycle   2 NSaved=   2.
 NSaved= 2 IEnMin= 2 EnMin= -466.681533204271     IErMin= 2 ErrMin= 2.37D-02
 ErrMax= 2.37D-02  0.00D+00 EMaxC= 1.00D-01 BMatC= 9.36D-01 BMatP= 4.11D+00
 IDIUse=3 WtCom= 7.63D-01 WtEn= 2.37D-01
 Coeff-Com: -0.869D+00 0.187D+01
 Coeff-En:   0.000D+00 0.100D+01
 Coeff:     -0.663D+00 0.166D+01
 Gap=     0.276 Goal=   None    Shift=    0.000
 Gap=     0.276 Goal=   None    Shift=    0.000
 RMSDP=1.21D-03 MaxDP=5.02D-02 DE=-1.10D-01 OVMax= 1.40D-01

 Cycle   3  Pass 1  IDiag  1:
 RMSU=  6.04D-04    CP:  9.12D-01  2.22D+00
 E= -466.825207052329     Delta-E=       -0.143673848058 Rises=F Damp=F
 DIIS: error= 7.76D-03 at cycle   3 NSaved=   3.
 NSaved= 3 IEnMin= 3 EnMin= -466.825207052329     IErMin= 3 ErrMin= 7.76D-03
 ErrMax= 7.76D-03  0.00D+00 EMaxC= 1.00D-01 BMatC= 2.42D-02 BMatP= 9.36D-01
 IDIUse=3 WtCom= 9.22D-01 WtEn= 7.76D-02
 Coeff-Com: -0.319D+00 0.683D+00 0.636D+00
 Coeff-En:   0.000D+00 0.000D+00 0.100D+01
 Coeff:     -0.294D+00 0.630D+00 0.664D+00
 Gap=     0.297 Goal=   None    Shift=    0.000
 Gap=     0.297 Goal=   None    Shift=    0.000
 RMSDP=2.26D-04 MaxDP=1.16D-02 DE=-1.44D-01 OVMax= 6.48D-02

 Cycle   4  Pass 1  IDiag  1:
 RMSU=  2.10D-04    CP:  9.05D-01  2.30D+00  1.00D+00
 E= -466.836091897057     Delta-E=       -0.010884844728 Rises=F Damp=F
 DIIS: error= 5.17D-03 at cycle   4 NSaved=   4.
 NSaved= 4 IEnMin= 4 EnMin= -466.836091897057     IErMin= 4 ErrMin= 5.17D-03
 ErrMax= 5.17D-03  0.00D+00 EMaxC= 1.00D-01 BMatC= 2.12D-03 BMatP= 2.42D-02
 IDIUse=3 WtCom= 9.48D-01 WtEn= 5.17D-02
 Coeff-Com:  0.142D+00-0.304D+00-0.675D-01 0.123D+01
 Coeff-En:   0.000D+00 0.000D+00 0.000D+00 0.100D+01
 Coeff:      0.135D+00-0.288D+00-0.640D-01 0.122D+01
 Gap=     0.308 Goal=   None    Shift=    0.000
 Gap=     0.308 Goal=   None    Shift=    0.000
 RMSDP=2.26D-04 MaxDP=1.27D-02 DE=-1.09D-02 OVMax= 7.89D-02

 Cycle   5  Pass 1  IDiag  1:
 RMSU=  9.09D-05    CP:  8.98D-01  2.36D+00  1.24D+00  1.65D+00
 E= -466.840914834923     Delta-E=       -0.004822937866 Rises=F Damp=F
 DIIS: error= 2.41D-03 at cycle   5 NSaved=   5.
 NSaved= 5 IEnMin= 5 EnMin= -466.840914834923     IErMin= 5 ErrMin= 2.41D-03
 ErrMax= 2.41D-03  0.00D+00 EMaxC= 1.00D-01 BMatC= 9.12D-04 BMatP= 2.12D-03
 IDIUse=3 WtCom= 9.76D-01 WtEn= 2.41D-02
 Coeff-Com:  0.726D-01-0.156D+00-0.774D-01 0.411D+00 0.750D+00
 Coeff-En:   0.000D+00 0.000D+00 0.000D+00 0.000D+00 0.100D+01
 Coeff:      0.709D-01-0.152D+00-0.755D-01 0.401D+00 0.756D+00
 Gap=     0.311 Goal=   None    Shift=    0.000
 Gap=     0.311 Goal=   None    Shift=    0.000
 RMSDP=8.11D-05 MaxDP=3.79D-03 DE=-4.82D-03 OVMax= 2.88D-02

 Cycle   6  Pass 1  IDiag  1:
 RMSU=  3.26D-05    CP:  8.96D-01  2.36D+00  1.28D+00  1.93D+00  1.38D+00
 E= -466.842313871651     Delta-E=       -0.001399036728 Rises=F Damp=F
 DIIS: error= 1.78D-03 at cycle   6 NSaved=   6.
 NSaved= 6 IEnMin= 6 EnMin= -466.842313871651     IErMin= 6 ErrMin= 1.78D-03
 ErrMax= 1.78D-03  0.00D+00 EMaxC= 1.00D-01 BMatC= 5.39D-04 BMatP= 9.12D-04
 IDIUse=3 WtCom= 9.82D-01 WtEn= 1.78D-02
 Coeff-Com: -0.785D-01 0.168D+00 0.569D-01-0.571D+00 0.288D-01 0.140D+01
 Coeff-En:   0.000D+00 0.000D+00 0.000D+00 0.000D+00 0.000D+00 0.100D+01
 Coeff:     -0.771D-01 0.165D+00 0.559D-01-0.561D+00 0.283D-01 0.139D+01
 Gap=     0.307 Goal=   None    Shift=    0.000
 Gap=     0.307 Goal=   None    Shift=    0.000
 RMSDP=1.06D-04 MaxDP=4.11D-03 DE=-1.40D-03 OVMax= 3.88D-02

 Cycle   7  Pass 1  IDiag  1:
 RMSU=  3.22D-05    CP:  8.94D-01  2.36D+00  1.32D+00  2.23D+00  2.07D+00
                    CP:  2.20D+00
 E= -466.843978882282     Delta-E=       -0.001665010631 Rises=F Damp=F
 DIIS: error= 1.15D-03 at cycle   7 NSaved=   7.
 NSaved= 7 IEnMin= 7 EnMin= -466.843978882282     IErMin= 7 ErrMin= 1.15D-03
 ErrMax= 1.15D-03  0.00D+00 EMaxC= 1.00D-01 BMatC= 2.83D-04 BMatP= 5.39D-04
 IDIUse=3 WtCom= 9.88D-01 WtEn= 1.15D-02
 Coeff-Com: -0.244D-01 0.529D-01 0.426D-01 0.123D-01-0.654D+00-0.651D+00
 Coeff-Com:  0.222D+01
 Coeff-En:   0.000D+00 0.000D+00 0.000D+00 0.000D+00 0.000D+00 0.000D+00
 Coeff-En:   0.100D+01
 Coeff:     -0.241D-01 0.523D-01 0.421D-01 0.122D-01-0.646D+00-0.644D+00
 Coeff:      0.221D+01
 Gap=     0.307 Goal=   None    Shift=    0.000
 Gap=     0.307 Goal=   None    Shift=    0.000
 RMSDP=1.46D-04 MaxDP=6.94D-03 DE=-1.67D-03 OVMax= 5.46D-02

 Cycle   8  Pass 1  IDiag  1:
 RMSU=  5.28D-05    CP:  8.92D-01  2.35D+00  1.37D+00  2.56D+00  2.96D+00
                    CP:  3.00D+00  2.76D+00
 E= -466.845501580707     Delta-E=       -0.001522698425 Rises=F Damp=F
 DIIS: error= 4.21D-04 at cycle   8 NSaved=   8.
 NSaved= 8 IEnMin= 8 EnMin= -466.845501580707     IErMin= 8 ErrMin= 4.21D-04
 ErrMax= 4.21D-04  0.00D+00 EMaxC= 1.00D-01 BMatC= 7.51D-05 BMatP= 2.83D-04
 IDIUse=3 WtCom= 9.96D-01 WtEn= 4.21D-03
 Coeff-Com:  0.268D-01-0.576D-01-0.864D-02 0.282D+00-0.209D+00-0.840D+00
 Coeff-Com:  0.682D+00 0.112D+01
 Coeff-En:   0.000D+00 0.000D+00 0.000D+00 0.000D+00 0.000D+00 0.000D+00
 Coeff-En:   0.000D+00 0.100D+01
 Coeff:      0.267D-01-0.574D-01-0.860D-02 0.281D+00-0.208D+00-0.836D+00
 Coeff:      0.679D+00 0.112D+01
 Gap=     0.309 Goal=   None    Shift=    0.000
 Gap=     0.309 Goal=   None    Shift=    0.000
 RMSDP=7.35D-05 MaxDP=3.59D-03 DE=-1.52D-03 OVMax= 2.70D-02

 Cycle   9  Pass 1  IDiag  1:
 RMSU=  4.43D-05    CP:  8.90D-01  2.35D+00  1.39D+00  2.68D+00  3.00D+00
                    CP:  3.00D+00  3.00D+00  1.81D+00
 E= -466.845806763129     Delta-E=       -0.000305182422 Rises=F Damp=F
 DIIS: error= 1.43D-04 at cycle   9 NSaved=   9.
 NSaved= 9 IEnMin= 9 EnMin= -466.845806763129     IErMin= 9 ErrMin= 1.43D-04
 ErrMax= 1.43D-04  0.00D+00 EMaxC= 1.00D-01 BMatC= 1.37D-05 BMatP= 7.51D-05
 IDIUse=3 WtCom= 9.99D-01 WtEn= 1.43D-03
 Coeff-Com:  0.154D-01-0.332D-01-0.107D-01 0.110D+00 0.332D-01-0.214D+00
 Coeff-Com: -0.119D+00 0.369D+00 0.848D+00
 Coeff-En:   0.000D+00 0.000D+00 0.000D+00 0.000D+00 0.000D+00 0.000D+00
 Coeff-En:   0.000D+00 0.000D+00 0.100D+01
 Coeff:      0.154D-01-0.331D-01-0.106D-01 0.110D+00 0.331D-01-0.213D+00
 Coeff:     -0.119D+00 0.369D+00 0.849D+00
 Gap=     0.308 Goal=   None    Shift=    0.000
 Gap=     0.308 Goal=   None    Shift=    0.000
 RMSDP=1.96D-05 MaxDP=9.72D-04 DE=-3.05D-04 OVMax= 7.12D-03

 Cycle  10  Pass 1  IDiag  1:
 RMSU=  5.43D-06    CP:  8.90D-01  2.35D+00  1.39D+00  2.70D+00  3.00D+00
                    CP:  3.00D+00  3.00D+00  2.03D+00  1.31D+00
 E= -466.845833582914     Delta-E=       -0.000026819785 Rises=F Damp=F
 DIIS: error= 6.54D-05 at cycle  10 NSaved=  10.
 NSaved=10 IEnMin=10 EnMin= -466.845833582914     IErMin=10 ErrMin= 6.54D-05
 ErrMax= 6.54D-05  0.00D+00 EMaxC= 1.00D-01 BMatC= 2.29D-06 BMatP= 1.37D-05
 IDIUse=1 WtCom= 1.00D+00 WtEn= 0.00D+00
 Coeff-Com: -0.143D-02 0.311D-02-0.717D-03-0.301D-01 0.426D-01 0.109D+00
 Coeff-Com: -0.136D+00-0.187D+00 0.172D+00 0.103D+01
 Coeff:     -0.143D-02 0.311D-02-0.717D-03-0.301D-01 0.426D-01 0.109D+00
 Coeff:     -0.136D+00-0.187D+00 0.172D+00 0.103D+01
 Gap=     0.308 Goal=   None    Shift=    0.000
 Gap=     0.308 Goal=   None    Shift=    0.000
 RMSDP=9.31D-06 MaxDP=4.39D-04 DE=-2.68D-05 OVMax= 3.52D-03

 Cycle  11  Pass 1  IDiag  1:
 RMSU=  2.76D-06    CP:  8.90D-01  2.35D+00  1.40D+00  2.72D+00  3.00D+00
                    CP:  3.00D+00  3.00D+00  2.12D+00  1.45D+00  1.44D+00
 E= -466.845837859144     Delta-E=       -0.000004276230 Rises=F Damp=F
 DIIS: error= 2.45D-05 at cycle  11 NSaved=  11.
 NSaved=11 IEnMin=11 EnMin= -466.845837859144     IErMin=11 ErrMin= 2.45D-05
 ErrMax= 2.45D-05  0.00D+00 EMaxC= 1.00D-01 BMatC= 5.19D-07 BMatP= 2.29D-06
 IDIUse=1 WtCom= 1.00D+00 WtEn= 0.00D+00
 Coeff-Com: -0.177D-02 0.381D-02 0.599D-03-0.201D-01 0.118D-01 0.549D-01
 Coeff-Com: -0.333D-01-0.105D+00-0.199D-01 0.409D+00 0.700D+00
 Coeff:     -0.177D-02 0.381D-02 0.599D-03-0.201D-01 0.118D-01 0.549D-01
 Coeff:     -0.333D-01-0.105D+00-0.199D-01 0.409D+00 0.700D+00
 Gap=     0.308 Goal=   None    Shift=    0.000
 Gap=     0.308 Goal=   None    Shift=    0.000
 RMSDP=1.55D-06 MaxDP=8.51D-05 DE=-4.28D-06 OVMax= 5.09D-04

 Cycle  12  Pass 1  IDiag  1:
 RMSU=  9.29D-07    CP:  8.90D-01  2.35D+00  1.40D+00  2.72D+00  3.00D+00
                    CP:  3.00D+00  3.00D+00  2.13D+00  1.46D+00  1.51D+00
                    CP:  1.21D+00
 E= -466.845838181594     Delta-E=       -0.000000322450 Rises=F Damp=F
 DIIS: error= 1.58D-05 at cycle  12 NSaved=  12.
 NSaved=12 IEnMin=12 EnMin= -466.845838181594     IErMin=12 ErrMin= 1.58D-05
 ErrMax= 1.58D-05  0.00D+00 EMaxC= 1.00D-01 BMatC= 8.59D-08 BMatP= 5.19D-07
 IDIUse=1 WtCom= 1.00D+00 WtEn= 0.00D+00
 Coeff-Com:  0.651D-03-0.141D-02-0.112D-03 0.926D-02-0.799D-02-0.297D-01
 Coeff-Com:  0.292D-01 0.509D-01-0.282D-01-0.261D+00-0.238D-01 0.126D+01
 Coeff:      0.651D-03-0.141D-02-0.112D-03 0.926D-02-0.799D-02-0.297D-01
 Coeff:      0.292D-01 0.509D-01-0.282D-01-0.261D+00-0.238D-01 0.126D+01
 Gap=     0.308 Goal=   None    Shift=    0.000
 Gap=     0.308 Goal=   None    Shift=    0.000
 RMSDP=1.04D-06 MaxDP=5.26D-05 DE=-3.22D-07 OVMax= 1.84D-04

 Cycle  13  Pass 1  IDiag  1:
 RMSU=  5.45D-07    CP:  8.90D-01  2.35D+00  1.40D+00  2.72D+00  3.00D+00
                    CP:  3.00D+00  3.00D+00  2.13D+00  1.46D+00  1.53D+00
                    CP:  1.42D+00  1.67D+00
 E= -466.845838318502     Delta-E=       -0.000000136908 Rises=F Damp=F
 DIIS: error= 8.27D-06 at cycle  13 NSaved=  13.
 NSaved=13 IEnMin=13 EnMin= -466.845838318502     IErMin=13 ErrMin= 8.27D-06
 ErrMax= 8.27D-06  0.00D+00 EMaxC= 1.00D-01 BMatC= 2.14D-08 BMatP= 8.59D-08
 IDIUse=1 WtCom= 1.00D+00 WtEn= 0.00D+00
 Coeff-Com: -0.820D-04 0.180D-03 0.947D-04-0.463D-03-0.161D-03 0.993D-03
 Coeff-Com: -0.954D-03 0.154D-02 0.148D-02-0.970D-02-0.995D-01-0.229D+00
 Coeff-Com:  0.134D+01
 Coeff:     -0.820D-04 0.180D-03 0.947D-04-0.463D-03-0.161D-03 0.993D-03
 Coeff:     -0.954D-03 0.154D-02 0.148D-02-0.970D-02-0.995D-01-0.229D+00
 Coeff:      0.134D+01
 Gap=     0.308 Goal=   None    Shift=    0.000
 Gap=     0.308 Goal=   None    Shift=    0.000
 RMSDP=4.80D-07 MaxDP=2.76D-05 DE=-1.37D-07 OVMax= 1.20D-04

 Cycle  14  Pass 1  IDiag  1:
 RMSU=  3.14D-07    CP:  8.90D-01  2.35D+00  1.40D+00  2.72D+00  3.00D+00
                    CP:  3.00D+00  3.00D+00  2.13D+00  1.46D+00  1.54D+00
                    CP:  1.48D+00  1.86D+00  1.47D+00
 E= -466.845838364378     Delta-E=       -0.000000045877 Rises=F Damp=F
 DIIS: error= 4.46D-06 at cycle  14 NSaved=  14.
 NSaved=14 IEnMin=14 EnMin= -466.845838364378     IErMin=14 ErrMin= 4.46D-06
 ErrMax= 4.46D-06  0.00D+00 EMaxC= 1.00D-01 BMatC= 6.55D-09 BMatP= 2.14D-08
 IDIUse=1 WtCom= 1.00D+00 WtEn= 0.00D+00
 Coeff-Com: -0.277D-03 0.599D-03 0.124D-03-0.320D-02 0.215D-02 0.967D-02
 Coeff-Com: -0.901D-02-0.158D-01 0.946D-02 0.847D-01-0.899D-02-0.459D+00
 Coeff-Com:  0.121D+00 0.127D+01
 Coeff:     -0.277D-03 0.599D-03 0.124D-03-0.320D-02 0.215D-02 0.967D-02
 Coeff:     -0.901D-02-0.158D-01 0.946D-02 0.847D-01-0.899D-02-0.459D+00
 Coeff:      0.121D+00 0.127D+01
 Gap=     0.308 Goal=   None    Shift=    0.000
 Gap=     0.308 Goal=   None    Shift=    0.000
 RMSDP=3.65D-07 MaxDP=1.69D-05 DE=-4.59D-08 OVMax= 8.69D-05

 Cycle  15  Pass 1  IDiag  1:
 RMSU=  1.34D-07    CP:  8.90D-01  2.35D+00  1.40D+00  2.72D+00  3.00D+00
                    CP:  3.00D+00  3.00D+00  2.13D+00  1.46D+00  1.55D+00
                    CP:  1.48D+00  1.95D+00  1.84D+00  1.80D+00
 E= -466.845838379289     Delta-E=       -0.000000014911 Rises=F Damp=F
 DIIS: error= 1.42D-06 at cycle  15 NSaved=  15.
 NSaved=15 IEnMin=15 EnMin= -466.845838379289     IErMin=15 ErrMin= 1.42D-06
 ErrMax= 1.42D-06  0.00D+00 EMaxC= 1.00D-01 BMatC= 8.89D-10 BMatP= 6.55D-09
 IDIUse=1 WtCom= 1.00D+00 WtEn= 0.00D+00
 Coeff-Com:  0.598D-05-0.134D-04-0.282D-04-0.125D-03 0.359D-03 0.720D-03
 Coeff-Com: -0.137D-02-0.156D-02 0.316D-02 0.141D-01 0.134D-01-0.368D-01
 Coeff-Com: -0.240D+00 0.215D+00 0.103D+01
 Coeff:      0.598D-05-0.134D-04-0.282D-04-0.125D-03 0.359D-03 0.720D-03
 Coeff:     -0.137D-02-0.156D-02 0.316D-02 0.141D-01 0.134D-01-0.368D-01
 Coeff:     -0.240D+00 0.215D+00 0.103D+01
 Gap=     0.308 Goal=   None    Shift=    0.000
 Gap=     0.308 Goal=   None    Shift=    0.000
 RMSDP=1.53D-07 MaxDP=7.29D-06 DE=-1.49D-08 OVMax= 3.24D-05

 Cycle  16  Pass 1  IDiag  1:
 RMSU=  5.73D-08    CP:  8.90D-01  2.35D+00  1.40D+00  2.72D+00  3.00D+00
                    CP:  3.00D+00  3.00D+00  2.13D+00  1.46D+00  1.55D+00
                    CP:  1.48D+00  1.97D+00  1.95D+00  2.08D+00  1.48D+00
 E= -466.845838380713     Delta-E=       -0.000000001424 Rises=F Damp=F
 DIIS: error= 3.03D-07 at cycle  16 NSaved=  16.
 NSaved=16 IEnMin=16 EnMin= -466.845838380713     IErMin=16 ErrMin= 3.03D-07
 ErrMax= 3.03D-07  0.00D+00 EMaxC= 1.00D-01 BMatC= 8.70D-11 BMatP= 8.89D-10
 IDIUse=1 WtCom= 1.00D+00 WtEn= 0.00D+00
 Coeff-Com:  0.121D-04-0.262D-04-0.106D-04 0.139D-03-0.533D-04-0.359D-03
 Coeff-Com:  0.218D-03 0.662D-03-0.909D-04-0.335D-02 0.443D-02 0.296D-01
 Coeff-Com: -0.624D-01-0.711D-01 0.235D+00 0.868D+00
 Coeff:      0.121D-04-0.262D-04-0.106D-04 0.139D-03-0.533D-04-0.359D-03
 Coeff:      0.218D-03 0.662D-03-0.909D-04-0.335D-02 0.443D-02 0.296D-01
 Coeff:     -0.624D-01-0.711D-01 0.235D+00 0.868D+00
 Gap=     0.308 Goal=   None    Shift=    0.000
 Gap=     0.308 Goal=   None    Shift=    0.000
 RMSDP=3.53D-08 MaxDP=2.05D-06 DE=-1.42D-09 OVMax= 5.18D-06

 Cycle  17  Pass 1  IDiag  1:
 RMSU=  1.46D-08    CP:  8.90D-01  2.35D+00  1.40D+00  2.72D+00  3.00D+00
                    CP:  3.00D+00  3.00D+00  2.13D+00  1.46D+00  1.55D+00
                    CP:  1.49D+00  1.97D+00  1.96D+00  2.11D+00  1.61D+00
                    CP:  1.32D+00
 E= -466.845838380772     Delta-E=       -0.000000000059 Rises=F Damp=F
 DIIS: error= 7.84D-08 at cycle  17 NSaved=  17.
 NSaved=17 IEnMin=17 EnMin= -466.845838380772     IErMin=17 ErrMin= 7.84D-08
 ErrMax= 7.84D-08  0.00D+00 EMaxC= 1.00D-01 BMatC= 1.02D-11 BMatP= 8.70D-11
 IDIUse=1 WtCom= 1.00D+00 WtEn= 0.00D+00
 Coeff-Com:  0.495D-06-0.100D-05 0.718D-06 0.184D-04-0.369D-04-0.559D-04
 Coeff-Com:  0.105D-03 0.199D-03-0.382D-03-0.189D-02-0.459D-03 0.852D-02
 Coeff-Com:  0.172D-01-0.369D-01-0.837D-01 0.162D+00 0.935D+00
 Coeff:      0.495D-06-0.100D-05 0.718D-06 0.184D-04-0.369D-04-0.559D-04
 Coeff:      0.105D-03 0.199D-03-0.382D-03-0.189D-02-0.459D-03 0.852D-02
 Coeff:      0.172D-01-0.369D-01-0.837D-01 0.162D+00 0.935D+00
 Gap=     0.308 Goal=   None    Shift=    0.000
 Gap=     0.308 Goal=   None    Shift=    0.000
 RMSDP=1.16D-08 MaxDP=4.81D-07 DE=-5.87D-11 OVMax= 1.75D-06

 Cycle  18  Pass 1  IDiag  1:
 RMSU=  5.72D-09    CP:  8.90D-01  2.35D+00  1.40D+00  2.72D+00  3.00D+00
                    CP:  3.00D+00  3.00D+00  2.13D+00  1.46D+00  1.55D+00
                    CP:  1.49D+00  1.97D+00  1.96D+00  2.12D+00  1.65D+00
                    CP:  1.42D+00  1.19D+00
 E= -466.845838380788     Delta-E=       -0.000000000016 Rises=F Damp=F
 DIIS: error= 2.85D-08 at cycle  18 NSaved=  18.
 NSaved=18 IEnMin=18 EnMin= -466.845838380788     IErMin=18 ErrMin= 2.85D-08
 ErrMax= 2.85D-08  0.00D+00 EMaxC= 1.00D-01 BMatC= 9.56D-13 BMatP= 1.02D-11
 IDIUse=1 WtCom= 1.00D+00 WtEn= 0.00D+00
 Coeff-Com:  0.701D-06-0.152D-05 0.517D-06 0.765D-05-0.178D-04-0.207D-04
 Coeff-Com:  0.358D-04 0.435D-04-0.661D-04-0.242D-03-0.468D-03-0.490D-03
 Coeff-Com:  0.765D-02 0.142D-03-0.324D-01-0.637D-01 0.125D+00 0.964D+00
 Coeff:      0.701D-06-0.152D-05 0.517D-06 0.765D-05-0.178D-04-0.207D-04
 Coeff:      0.358D-04 0.435D-04-0.661D-04-0.242D-03-0.468D-03-0.490D-03
 Coeff:      0.765D-02 0.142D-03-0.324D-01-0.637D-01 0.125D+00 0.964D+00
 Gap=     0.308 Goal=   None    Shift=    0.000
 Gap=     0.308 Goal=   None    Shift=    0.000
 RMSDP=3.54D-09 MaxDP=1.66D-07 DE=-1.63D-11 OVMax= 4.64D-07

 Error on total polarization charges =  0.01122
 SCF Done:  E(UwB97XD) =  -466.845838381     A.U. after   18 cycles
            NFock= 18  Conv=0.35D-08     -V/T= 2.0057
 <Sx>= 0.0000 <Sy>= 0.0000 <Sz>= 0.0000 <S**2>= 0.0000 S= 0.0000
 <L.S>=  0.00000000000    
 KE= 4.642225171682D+02 PE=-2.438352164691D+03 EE= 8.290835221968D+02
 --------------------------------------------------------------------
 Variational PCM results
 =======================
 <psi(f)|   H    |psi(f)>                     (a.u.) =    -466.853592
 <psi(f)|H+V(f)/2|psi(f)>                     (a.u.) =    -466.855132
 Total free energy in solution:
 - with all non electrostatic terms           (a.u.) =    -466.845838
 --------------------------------------------------------------------
 (Polarized solute)-Solvent               (kcal/mol) =      -0.97
 --------------------------------------------------------------------
 Quantum repulsion energy                 (kcal/mol) =       5.83
 Total non electrostatic                  (kcal/mol) =       5.83
 --------------------------------------------------------------------
 Partition over spheres:
 Sphere  on Atom  Surface  Charge   GEl     GCav    GDR
    1               6.21   0.010   -0.05    0.00    0.00
    2               3.94   0.006   -0.04    0.00    0.00
    3               7.52  -0.010   -0.04    0.00    0.00
    4               3.08  -0.004   -0.01    0.00    0.00
    5               5.31   0.009   -0.06    0.00    0.00
    6               4.77   0.007   -0.04    0.00    0.00
    7               4.65  -0.007   -0.03    0.00    0.00
    8               3.52  -0.004   -0.01    0.00    0.00
    9               3.14   0.002    0.00    0.00    0.00
   10               6.91  -0.007   -0.01    0.00    0.00
   11               2.58  -0.002   -0.01    0.00    0.00
   12               6.75   0.010   -0.06    0.00    0.00
   13               7.51  -0.010   -0.03    0.00    0.00
   14               7.33   0.011   -0.05    0.00    0.00
   15               7.52  -0.010   -0.04    0.00    0.00
   16               3.73   0.001    0.00    0.00    0.00
   17               3.41  -0.003   -0.01    0.00    0.00
   18               6.95  -0.008   -0.03    0.00    0.00
   19               5.10   0.010   -0.06    0.00    0.00
   20               5.15  -0.007   -0.03    0.00    0.00
   21               6.28   0.010   -0.06    0.00    0.00
   22               7.51  -0.010   -0.03    0.00    0.00
   23               3.58   0.002    0.00    0.00    0.00
   24               3.93  -0.003   -0.01    0.00    0.00
   25               6.88  -0.007   -0.01    0.00    0.00
   26               2.95   0.001    0.00    0.00    0.00
   27               7.05  -0.008   -0.03    0.00    0.00
   28               3.41  -0.003   -0.01    0.00    0.00
 Added spheres:    74.77   0.013   -0.21    0.00    0.00
 --------------------------------------------------------------------
 After PCM corrections, the energy is  -466.845838381     a.u.
 --------------------------------------------------------------------
 Annihilation of the first spin contaminant:
 S**2 before annihilation     0.0000,   after    -0.0000
 Leave Link  502 at Tue Aug  4 03:24:47 2020, MaxMem=  6442450944 cpu:            7921.8 elap:             332.9
 (Enter /scratch/scicomp/CentOS/7.3.1611/Haswell/software/Gaussian/g16/l601.exe)
 Copying SCF densities to generalized density rwf, IOpCl= 1 IROHF=0.

 **********************************************************************

            Population analysis using the SCF Density.

 **********************************************************************

 Alpha  occ. eigenvalues --  -10.28369 -10.28368 -10.28091 -10.28091 -10.28078
 Alpha  occ. eigenvalues --  -10.28078 -10.28010 -10.28009 -10.27798 -10.27797
 Alpha  occ. eigenvalues --  -10.27336 -10.27336  -0.94113  -0.93426  -0.84232
 Alpha  occ. eigenvalues --   -0.84091  -0.83634  -0.83561  -0.71397  -0.71043
 Alpha  occ. eigenvalues --   -0.67932  -0.67793  -0.59663  -0.59521  -0.57294
 Alpha  occ. eigenvalues --   -0.56493  -0.53579  -0.52700  -0.50847  -0.50825
 Alpha  occ. eigenvalues --   -0.49747  -0.49208  -0.47302  -0.46755  -0.45221
 Alpha  occ. eigenvalues --   -0.44899  -0.41216  -0.40869  -0.39658  -0.39156
 Alpha  occ. eigenvalues --   -0.39089  -0.38787  -0.29732  -0.27265
 Alpha virt. eigenvalues --    0.03518   0.05380   0.11391   0.13100   0.14377
 Alpha virt. eigenvalues --    0.15494   0.15522   0.16392   0.16541   0.16928
 Alpha virt. eigenvalues --    0.17543   0.17673   0.18140   0.19192   0.20925
 Alpha virt. eigenvalues --    0.22151   0.22351   0.23679   0.24279   0.24517
 Alpha virt. eigenvalues --    0.25501   0.26271   0.26549   0.27416   0.28619
 Alpha virt. eigenvalues --    0.29053   0.29654   0.29950   0.30882   0.31178
 Alpha virt. eigenvalues --    0.31974   0.32346   0.32861   0.33220   0.34218
 Alpha virt. eigenvalues --    0.34454   0.34936   0.36397   0.36591   0.37880
 Alpha virt. eigenvalues --    0.38603   0.39650   0.40795   0.41900   0.42332
 Alpha virt. eigenvalues --    0.42363   0.44369   0.44779   0.45846   0.46516
 Alpha virt. eigenvalues --    0.47171   0.47583   0.48586   0.48597   0.49196
 Alpha virt. eigenvalues --    0.49444   0.49643   0.49757   0.50372   0.50809
 Alpha virt. eigenvalues --    0.51221   0.51290   0.52557   0.52802   0.53383
 Alpha virt. eigenvalues --    0.53926   0.54895   0.54909   0.55738   0.55931
 Alpha virt. eigenvalues --    0.57637   0.58163   0.58337   0.59535   0.60657
 Alpha virt. eigenvalues --    0.60869   0.61248   0.62555   0.63591   0.65310
 Alpha virt. eigenvalues --    0.66257   0.67297   0.68384   0.68721   0.68965
 Alpha virt. eigenvalues --    0.69966   0.72890   0.73391   0.74211   0.75166
 Alpha virt. eigenvalues --    0.77989   0.78574   0.78805   0.80426   0.80686
 Alpha virt. eigenvalues --    0.81946   0.82820   0.83698   0.87539   0.87941
 Alpha virt. eigenvalues --    0.89999   0.90308   0.90673   0.92181   0.93274
 Alpha virt. eigenvalues --    0.94305   0.95484   0.96852   0.98670   0.99168
 Alpha virt. eigenvalues --    1.01212   1.03939   1.05114   1.05357   1.05370
 Alpha virt. eigenvalues --    1.06926   1.07924   1.08318   1.09551   1.11584
 Alpha virt. eigenvalues --    1.13052   1.13852   1.14330   1.15201   1.16168
 Alpha virt. eigenvalues --    1.16673   1.17434   1.18217   1.19164   1.20368
 Alpha virt. eigenvalues --    1.20743   1.21528   1.24108   1.24873   1.25187
 Alpha virt. eigenvalues --    1.25886   1.26521   1.27879   1.28577   1.28963
 Alpha virt. eigenvalues --    1.29603   1.31555   1.31781   1.32818   1.32842
 Alpha virt. eigenvalues --    1.34360   1.35085   1.37433   1.37730   1.37856
 Alpha virt. eigenvalues --    1.38898   1.39086   1.41028   1.41343   1.42244
 Alpha virt. eigenvalues --    1.43209   1.43603   1.43664   1.44097   1.45146
 Alpha virt. eigenvalues --    1.46197   1.46210   1.47361   1.48200   1.49221
 Alpha virt. eigenvalues --    1.49376   1.51199   1.52596   1.54423   1.56187
 Alpha virt. eigenvalues --    1.57976   1.58338   1.59092   1.60275   1.61557
 Alpha virt. eigenvalues --    1.62284   1.63741   1.63796   1.66130   1.67581
 Alpha virt. eigenvalues --    1.68553   1.70805   1.73737   1.74560   1.78676
 Alpha virt. eigenvalues --    1.79450   1.80928   1.81585   1.83642   1.85198
 Alpha virt. eigenvalues --    1.87356   1.87410   1.90539   1.91472   1.92342
 Alpha virt. eigenvalues --    1.93132   1.97836   1.97942   2.00648   2.00656
 Alpha virt. eigenvalues --    2.03146   2.03724   2.08126   2.09069   2.09405
 Alpha virt. eigenvalues --    2.10964   2.12172   2.12815   2.14604   2.15670
 Alpha virt. eigenvalues --    2.17779   2.20472   2.20836   2.21389   2.22888
 Alpha virt. eigenvalues --    2.23594   2.25051   2.25466   2.27472   2.27916
 Alpha virt. eigenvalues --    2.32717   2.35922   2.37919   2.39529   2.41888
 Alpha virt. eigenvalues --    2.43771   2.45277   2.45607   2.49326   2.49780
 Alpha virt. eigenvalues --    2.50361   2.50826   2.53304   2.55279   2.55449
 Alpha virt. eigenvalues --    2.56661   2.57829   2.59127   2.61639   2.62233
 Alpha virt. eigenvalues --    2.62721   2.64896   2.65202   2.65622   2.66212
 Alpha virt. eigenvalues --    2.66784   2.67758   2.71205   2.72469   2.72996
 Alpha virt. eigenvalues --    2.73219   2.74296   2.75082   2.76011   2.77044
 Alpha virt. eigenvalues --    2.77737   2.78965   2.80180   2.80818   2.81401
 Alpha virt. eigenvalues --    2.81621   2.83139   2.83159   2.84398   2.85555
 Alpha virt. eigenvalues --    2.86332   2.87264   2.87339   2.87800   2.90285
 Alpha virt. eigenvalues --    2.91422   2.91869   2.92749   2.93025   2.94620
 Alpha virt. eigenvalues --    2.95650   2.95935   2.96286   2.97339   3.01225
 Alpha virt. eigenvalues --    3.01347   3.02522   3.03501   3.05182   3.05967
 Alpha virt. eigenvalues --    3.07652   3.09332   3.09984   3.10691   3.10706
 Alpha virt. eigenvalues --    3.11870   3.13244   3.13734   3.14818   3.15576
 Alpha virt. eigenvalues --    3.15757   3.16798   3.17264   3.18826   3.19368
 Alpha virt. eigenvalues --    3.20126   3.20733   3.20794   3.21210   3.21707
 Alpha virt. eigenvalues --    3.22169   3.23043   3.23441   3.24121   3.24770
 Alpha virt. eigenvalues --    3.25886   3.26425   3.26948   3.27118   3.27908
 Alpha virt. eigenvalues --    3.28443   3.30607   3.31038   3.32012   3.32023
 Alpha virt. eigenvalues --    3.32394   3.33023   3.33816   3.34883   3.35367
 Alpha virt. eigenvalues --    3.36140   3.36764   3.37020   3.38011   3.39132
 Alpha virt. eigenvalues --    3.41151   3.42486   3.43178   3.43691   3.44405
 Alpha virt. eigenvalues --    3.45675   3.45745   3.46814   3.47392   3.47415
 Alpha virt. eigenvalues --    3.48306   3.49569   3.49966   3.51120   3.52280
 Alpha virt. eigenvalues --    3.52898   3.53510   3.54451   3.55041   3.55101
 Alpha virt. eigenvalues --    3.57568   3.58489   3.58520   3.61089   3.65678
 Alpha virt. eigenvalues --    3.65746   3.66372   3.66435   3.68327   3.69181
 Alpha virt. eigenvalues --    3.70014   3.70029   3.72096   3.72460   3.74134
 Alpha virt. eigenvalues --    3.77541   3.77708   3.79262   3.81336   3.83433
 Alpha virt. eigenvalues --    3.85369   3.85637   3.85821   3.86843   3.87777
 Alpha virt. eigenvalues --    3.89587   3.91595   3.92797   3.94300   3.95684
 Alpha virt. eigenvalues --    3.98044   3.99709   4.01675   4.02320   4.04767
 Alpha virt. eigenvalues --    4.06483   4.08333   4.09275   4.09337   4.10897
 Alpha virt. eigenvalues --    4.12302   4.13107   4.14984   4.15168   4.18647
 Alpha virt. eigenvalues --    4.18849   4.21121   4.21246   4.23262   4.25138
 Alpha virt. eigenvalues --    4.26270   4.26942   4.31196   4.31268   4.35363
 Alpha virt. eigenvalues --    4.35508   4.38372   4.38971   4.40304   4.42048
 Alpha virt. eigenvalues --    4.44593   4.45421   4.48271   4.49493   4.52464
 Alpha virt. eigenvalues --    4.54284   4.59394   4.61509   4.64781   4.67730
 Alpha virt. eigenvalues --    4.68311   4.69274   4.73418   4.73996   4.76321
 Alpha virt. eigenvalues --    4.77687   4.80123   4.81374   4.84499   4.84770
 Alpha virt. eigenvalues --    4.85599   4.87119   4.92300   4.94374   4.95316
 Alpha virt. eigenvalues --    4.97947   4.99058   5.00470   5.07060   5.07904
 Alpha virt. eigenvalues --    5.14194   5.15631   5.19380   5.21366   5.22777
 Alpha virt. eigenvalues --    5.23575   5.33305   5.33418   5.41510   5.42652
 Alpha virt. eigenvalues --    5.44444   5.44737   5.50540   5.52330   5.70071
 Alpha virt. eigenvalues --    5.71397   5.76872   5.79327   5.95518   6.02618
 Alpha virt. eigenvalues --    7.94326   7.95522   8.01058   8.04685   8.05359
 Alpha virt. eigenvalues --    8.08970   8.09719   8.12729   8.17434   8.19090
 Alpha virt. eigenvalues --    8.35790   8.35903  34.76389  34.77847  34.81278
 Alpha virt. eigenvalues --   34.81863  34.85261  34.89619  34.96306  34.99435
 Alpha virt. eigenvalues --   35.01668  35.01846  35.16933  35.18551
  Beta  occ. eigenvalues --  -10.28369 -10.28368 -10.28091 -10.28091 -10.28078
  Beta  occ. eigenvalues --  -10.28078 -10.28010 -10.28009 -10.27798 -10.27797
  Beta  occ. eigenvalues --  -10.27336 -10.27336  -0.94113  -0.93426  -0.84232
  Beta  occ. eigenvalues --   -0.84091  -0.83634  -0.83561  -0.71397  -0.71043
  Beta  occ. eigenvalues --   -0.67932  -0.67793  -0.59663  -0.59521  -0.57294
  Beta  occ. eigenvalues --   -0.56493  -0.53579  -0.52700  -0.50847  -0.50825
  Beta  occ. eigenvalues --   -0.49747  -0.49208  -0.47302  -0.46755  -0.45221
  Beta  occ. eigenvalues --   -0.44899  -0.41216  -0.40869  -0.39658  -0.39156
  Beta  occ. eigenvalues --   -0.39089  -0.38787  -0.29732  -0.27265
  Beta virt. eigenvalues --    0.03518   0.05380   0.11391   0.13100   0.14377
  Beta virt. eigenvalues --    0.15494   0.15522   0.16392   0.16541   0.16928
  Beta virt. eigenvalues --    0.17543   0.17673   0.18140   0.19192   0.20925
  Beta virt. eigenvalues --    0.22151   0.22351   0.23679   0.24279   0.24517
  Beta virt. eigenvalues --    0.25501   0.26271   0.26549   0.27416   0.28619
  Beta virt. eigenvalues --    0.29053   0.29654   0.29950   0.30882   0.31178
  Beta virt. eigenvalues --    0.31974   0.32346   0.32861   0.33220   0.34218
  Beta virt. eigenvalues --    0.34454   0.34936   0.36397   0.36591   0.37880
  Beta virt. eigenvalues --    0.38603   0.39650   0.40795   0.41900   0.42332
  Beta virt. eigenvalues --    0.42363   0.44369   0.44779   0.45846   0.46516
  Beta virt. eigenvalues --    0.47171   0.47583   0.48586   0.48597   0.49196
  Beta virt. eigenvalues --    0.49444   0.49643   0.49757   0.50372   0.50809
  Beta virt. eigenvalues --    0.51221   0.51290   0.52557   0.52802   0.53383
  Beta virt. eigenvalues --    0.53926   0.54895   0.54909   0.55738   0.55931
  Beta virt. eigenvalues --    0.57637   0.58163   0.58337   0.59535   0.60657
  Beta virt. eigenvalues --    0.60869   0.61248   0.62555   0.63591   0.65310
  Beta virt. eigenvalues --    0.66257   0.67297   0.68384   0.68721   0.68965
  Beta virt. eigenvalues --    0.69966   0.72890   0.73391   0.74211   0.75166
  Beta virt. eigenvalues --    0.77989   0.78574   0.78805   0.80426   0.80686
  Beta virt. eigenvalues --    0.81946   0.82820   0.83698   0.87539   0.87941
  Beta virt. eigenvalues --    0.89999   0.90308   0.90673   0.92181   0.93274
  Beta virt. eigenvalues --    0.94305   0.95484   0.96852   0.98670   0.99168
  Beta virt. eigenvalues --    1.01212   1.03939   1.05114   1.05357   1.05370
  Beta virt. eigenvalues --    1.06926   1.07924   1.08318   1.09551   1.11584
  Beta virt. eigenvalues --    1.13052   1.13852   1.14330   1.15201   1.16168
  Beta virt. eigenvalues --    1.16673   1.17434   1.18217   1.19164   1.20368
  Beta virt. eigenvalues --    1.20743   1.21528   1.24108   1.24873   1.25187
  Beta virt. eigenvalues --    1.25886   1.26521   1.27879   1.28577   1.28963
  Beta virt. eigenvalues --    1.29603   1.31555   1.31781   1.32818   1.32842
  Beta virt. eigenvalues --    1.34360   1.35085   1.37433   1.37730   1.37856
  Beta virt. eigenvalues --    1.38898   1.39086   1.41028   1.41343   1.42244
  Beta virt. eigenvalues --    1.43209   1.43603   1.43664   1.44097   1.45146
  Beta virt. eigenvalues --    1.46197   1.46210   1.47361   1.48200   1.49221
  Beta virt. eigenvalues --    1.49376   1.51199   1.52596   1.54423   1.56187
  Beta virt. eigenvalues --    1.57976   1.58338   1.59092   1.60275   1.61557
  Beta virt. eigenvalues --    1.62284   1.63741   1.63796   1.66130   1.67581
  Beta virt. eigenvalues --    1.68553   1.70805   1.73737   1.74560   1.78676
  Beta virt. eigenvalues --    1.79450   1.80928   1.81585   1.83642   1.85198
  Beta virt. eigenvalues --    1.87356   1.87410   1.90539   1.91472   1.92342
  Beta virt. eigenvalues --    1.93132   1.97836   1.97942   2.00648   2.00656
  Beta virt. eigenvalues --    2.03146   2.03724   2.08126   2.09069   2.09405
  Beta virt. eigenvalues --    2.10964   2.12172   2.12815   2.14604   2.15670
  Beta virt. eigenvalues --    2.17779   2.20472   2.20836   2.21389   2.22888
  Beta virt. eigenvalues --    2.23594   2.25051   2.25466   2.27472   2.27916
  Beta virt. eigenvalues --    2.32717   2.35922   2.37919   2.39529   2.41888
  Beta virt. eigenvalues --    2.43771   2.45277   2.45607   2.49326   2.49780
  Beta virt. eigenvalues --    2.50361   2.50826   2.53304   2.55279   2.55449
  Beta virt. eigenvalues --    2.56661   2.57829   2.59127   2.61639   2.62233
  Beta virt. eigenvalues --    2.62721   2.64896   2.65202   2.65622   2.66212
  Beta virt. eigenvalues --    2.66784   2.67758   2.71205   2.72469   2.72996
  Beta virt. eigenvalues --    2.73219   2.74296   2.75082   2.76011   2.77044
  Beta virt. eigenvalues --    2.77737   2.78965   2.80180   2.80818   2.81401
  Beta virt. eigenvalues --    2.81621   2.83139   2.83159   2.84398   2.85555
  Beta virt. eigenvalues --    2.86332   2.87264   2.87339   2.87800   2.90285
  Beta virt. eigenvalues --    2.91422   2.91869   2.92749   2.93025   2.94620
  Beta virt. eigenvalues --    2.95650   2.95935   2.96286   2.97339   3.01225
  Beta virt. eigenvalues --    3.01347   3.02522   3.03501   3.05182   3.05967
  Beta virt. eigenvalues --    3.07652   3.09332   3.09984   3.10691   3.10706
  Beta virt. eigenvalues --    3.11870   3.13244   3.13734   3.14818   3.15576
  Beta virt. eigenvalues --    3.15757   3.16798   3.17264   3.18826   3.19368
  Beta virt. eigenvalues --    3.20126   3.20733   3.20794   3.21210   3.21707
  Beta virt. eigenvalues --    3.22169   3.23043   3.23441   3.24121   3.24770
  Beta virt. eigenvalues --    3.25886   3.26425   3.26948   3.27118   3.27908
  Beta virt. eigenvalues --    3.28443   3.30607   3.31038   3.32012   3.32023
  Beta virt. eigenvalues --    3.32394   3.33023   3.33816   3.34883   3.35367
  Beta virt. eigenvalues --    3.36140   3.36764   3.37020   3.38011   3.39132
  Beta virt. eigenvalues --    3.41151   3.42486   3.43178   3.43691   3.44405
  Beta virt. eigenvalues --    3.45675   3.45745   3.46814   3.47392   3.47415
  Beta virt. eigenvalues --    3.48306   3.49569   3.49966   3.51120   3.52280
  Beta virt. eigenvalues --    3.52898   3.53510   3.54451   3.55041   3.55101
  Beta virt. eigenvalues --    3.57568   3.58489   3.58520   3.61089   3.65678
  Beta virt. eigenvalues --    3.65746   3.66372   3.66435   3.68327   3.69181
  Beta virt. eigenvalues --    3.70014   3.70029   3.72096   3.72460   3.74134
  Beta virt. eigenvalues --    3.77541   3.77708   3.79262   3.81336   3.83433
  Beta virt. eigenvalues --    3.85369   3.85637   3.85821   3.86843   3.87777
  Beta virt. eigenvalues --    3.89587   3.91595   3.92797   3.94300   3.95684
  Beta virt. eigenvalues --    3.98044   3.99709   4.01675   4.02320   4.04767
  Beta virt. eigenvalues --    4.06483   4.08333   4.09275   4.09337   4.10897
  Beta virt. eigenvalues --    4.12302   4.13107   4.14984   4.15168   4.18647
  Beta virt. eigenvalues --    4.18849   4.21121   4.21246   4.23262   4.25138
  Beta virt. eigenvalues --    4.26270   4.26942   4.31196   4.31268   4.35363
  Beta virt. eigenvalues --    4.35508   4.38372   4.38971   4.40304   4.42048
  Beta virt. eigenvalues --    4.44593   4.45421   4.48271   4.49493   4.52464
  Beta virt. eigenvalues --    4.54284   4.59394   4.61509   4.64781   4.67730
  Beta virt. eigenvalues --    4.68311   4.69274   4.73418   4.73996   4.76321
  Beta virt. eigenvalues --    4.77687   4.80123   4.81374   4.84499   4.84770
  Beta virt. eigenvalues --    4.85599   4.87119   4.92300   4.94374   4.95316
  Beta virt. eigenvalues --    4.97947   4.99058   5.00470   5.07060   5.07904
  Beta virt. eigenvalues --    5.14194   5.15631   5.19380   5.21366   5.22777
  Beta virt. eigenvalues --    5.23575   5.33305   5.33418   5.41510   5.42652
  Beta virt. eigenvalues --    5.44444   5.44737   5.50540   5.52330   5.70071
  Beta virt. eigenvalues --    5.71397   5.76872   5.79327   5.95518   6.02618
  Beta virt. eigenvalues --    7.94326   7.95522   8.01058   8.04685   8.05359
  Beta virt. eigenvalues --    8.08970   8.09719   8.12729   8.17434   8.19090
  Beta virt. eigenvalues --    8.35790   8.35903  34.76389  34.77847  34.81278
  Beta virt. eigenvalues --   34.81863  34.85261  34.89619  34.96306  34.99435
  Beta virt. eigenvalues --   35.01668  35.01846  35.16933  35.18551
          Condensed to atoms (all electrons):
               1          2          3          4          5          6
     1  C    5.143037   0.000215   0.423915  -0.001784   0.001290  -0.005820
     2  C    0.000215   5.362329  -0.002206   0.426373  -0.036230  -0.034280
     3  H    0.423915  -0.002206   0.491538   0.000026  -0.000042   0.000004
     4  H   -0.001784   0.426373   0.000026   0.464041  -0.004712   0.003288
     5  C    0.001290  -0.036230  -0.000042  -0.004712   5.183762   0.493187
     6  C   -0.005820  -0.034280   0.000004   0.003288   0.493187   5.361760
     7  H    0.000298  -0.002043   0.000001  -0.000071   0.424818  -0.026572
     8  H   -0.001855   0.003237  -0.000030   0.000004  -0.039855   0.426267
     9  C    0.001973  -0.007484  -0.000006  -0.001677  -0.057435   0.209252
    10  H   -0.000041   0.000538  -0.000001  -0.000131  -0.004816  -0.035747
    11  H    0.000054  -0.005590   0.000001   0.000247   0.009294  -0.060435
    12  C   -0.000159   0.010839   0.000002   0.001839   0.288348  -0.068200
    13  H   -0.000001   0.000037   0.000000   0.000018  -0.036100   0.004789
    14  C    0.000158  -0.005755  -0.000000  -0.001914  -0.050223   0.000102
    15  H   -0.000000   0.000004  -0.000000  -0.000029   0.007054  -0.002177
    16  C   -0.000626   0.013118   0.000000   0.000677  -0.001354  -0.058959
    17  H   -0.000038  -0.000427  -0.000001  -0.001432   0.009195  -0.001574
    18  H    0.000003   0.000472   0.000000   0.000233  -0.003209   0.011633
    19  C   -0.049953   0.492794   0.007098  -0.040040  -0.013991  -0.036326
    20  H    0.003615  -0.025883  -0.000079  -0.004137   0.000323  -0.002068
    21  C    0.579116  -0.068135  -0.031679   0.004831   0.001597   0.010902
    22  H   -0.025068   0.004871  -0.005626  -0.000049   0.000023   0.000037
    23  C   -0.081428   0.209680   0.005159  -0.012911   0.009927  -0.007571
    24  H    0.013564  -0.060550  -0.000081  -0.003934   0.000968  -0.005603
    25  H    0.003661  -0.035571  -0.000055  -0.000578   0.000602   0.000538
    26  C    0.276089  -0.058832  -0.028961   0.003572  -0.006663   0.013102
    27  H   -0.039151   0.011620  -0.004398  -0.000082   0.000275   0.000472
    28  H   -0.035458  -0.001563   0.000982  -0.000131  -0.003334  -0.000491
               7          8          9         10         11         12
     1  C    0.000298  -0.001855   0.001973  -0.000041   0.000054  -0.000159
     2  C   -0.002043   0.003237  -0.007484   0.000538  -0.005590   0.010839
     3  H    0.000001  -0.000030  -0.000006  -0.000001   0.000001   0.000002
     4  H   -0.000071   0.000004  -0.001677  -0.000131   0.000247   0.001839
     5  C    0.424818  -0.039855  -0.057435  -0.004816   0.009294   0.288348
     6  C   -0.026572   0.426267   0.209252  -0.035747  -0.060435  -0.068200
     7  H    0.474499  -0.004157   0.002821  -0.000259  -0.000015  -0.029184
     8  H   -0.004157   0.464495  -0.013015  -0.000579  -0.003926   0.004817
     9  C    0.002821  -0.013015   4.994022   0.386009   0.464186   0.036627
    10  H   -0.000259  -0.000579   0.386009   0.569021  -0.020742   0.001480
    11  H   -0.000015  -0.003926   0.464186  -0.020742   0.532465  -0.004692
    12  C   -0.029184   0.004817   0.036627   0.001480  -0.004692   5.009373
    13  H   -0.003159  -0.000050  -0.000285  -0.000051   0.000025   0.425076
    14  C    0.003600  -0.001772  -0.081316   0.003710   0.013544   0.579724
    15  H   -0.000080   0.000026   0.005138  -0.000052  -0.000081  -0.031445
    16  C   -0.000833   0.003563   0.342909  -0.021268  -0.057291  -0.056985
    17  H    0.000016  -0.000129  -0.032566   0.006540  -0.008238  -0.014272
    18  H    0.000027  -0.000083  -0.044633  -0.008806  -0.000677   0.006369
    19  C    0.000325  -0.004770   0.009959   0.000597   0.000987   0.001611
    20  H    0.000008  -0.000071   0.002619   0.000220  -0.001531  -0.000145
    21  C   -0.000147   0.001907  -0.002070  -0.000031  -0.000007  -0.000315
    22  H   -0.000001   0.000019  -0.000054  -0.000001   0.000008  -0.000000
    23  C    0.002588  -0.001668   0.001406  -0.000031   0.000267  -0.002044
    24  H   -0.001509   0.000248   0.000272  -0.000009  -0.000021  -0.000014
    25  H    0.000220  -0.000132  -0.000032   0.000004  -0.000009  -0.000031
    26  C   -0.001729   0.000682  -0.000915   0.000070  -0.000102   0.000939
    27  H   -0.000024   0.000234  -0.000022   0.000001  -0.000001  -0.000044
    28  H    0.001540  -0.001488   0.000484  -0.000003   0.000010   0.000490
              13         14         15         16         17         18
     1  C   -0.000001   0.000158  -0.000000  -0.000626  -0.000038   0.000003
     2  C    0.000037  -0.005755   0.000004   0.013118  -0.000427   0.000472
     3  H    0.000000  -0.000000  -0.000000   0.000000  -0.000001   0.000000
     4  H    0.000018  -0.001914  -0.000029   0.000677  -0.001432   0.000233
     5  C   -0.036100  -0.050223   0.007054  -0.001354   0.009195  -0.003209
     6  C    0.004789   0.000102  -0.002177  -0.058959  -0.001574   0.011633
     7  H   -0.003159   0.003600  -0.000080  -0.000833   0.000016   0.000027
     8  H   -0.000050  -0.001772   0.000026   0.003563  -0.000129  -0.000083
     9  C   -0.000285  -0.081316   0.005138   0.342909  -0.032566  -0.044633
    10  H   -0.000051   0.003710  -0.000052  -0.021268   0.006540  -0.008806
    11  H    0.000025   0.013544  -0.000081  -0.057291  -0.008238  -0.000677
    12  C    0.425076   0.579724  -0.031445  -0.056985  -0.014272   0.006369
    13  H    0.488546  -0.025230  -0.005614   0.004204  -0.000373  -0.000088
    14  C   -0.025230   5.142729   0.423654   0.276065  -0.035491  -0.039261
    15  H   -0.005614   0.423654   0.491535  -0.028929   0.000997  -0.004410
    16  C    0.004204   0.276065  -0.028929   4.942266   0.401537   0.437453
    17  H   -0.000373  -0.035491   0.000997   0.401537   0.583785  -0.022116
    18  H   -0.000088  -0.039261  -0.004410   0.437453  -0.022116   0.537260
    19  C    0.000023   0.001272  -0.000042  -0.006667  -0.003390   0.000274
    20  H   -0.000001   0.000299   0.000001  -0.001751   0.001525  -0.000024
    21  C   -0.000000  -0.000159   0.000002   0.000936   0.000490  -0.000044
    22  H    0.000000  -0.000001   0.000000   0.000016  -0.000001  -0.000001
    23  C   -0.000056   0.001978  -0.000006  -0.000914   0.000485  -0.000022
    24  H    0.000009   0.000056   0.000001  -0.000102   0.000010  -0.000001
    25  H   -0.000001  -0.000042  -0.000001   0.000070  -0.000003   0.000001
    26  C    0.000016  -0.000626   0.000000   0.000905   0.000059  -0.000004
    27  H   -0.000001   0.000003   0.000000  -0.000004   0.000002  -0.000000
    28  H   -0.000001  -0.000037  -0.000001   0.000059  -0.000018   0.000002
              19         20         21         22         23         24
     1  C   -0.049953   0.003615   0.579116  -0.025068  -0.081428   0.013564
     2  C    0.492794  -0.025883  -0.068135   0.004871   0.209680  -0.060550
     3  H    0.007098  -0.000079  -0.031679  -0.005626   0.005159  -0.000081
     4  H   -0.040040  -0.004137   0.004831  -0.000049  -0.012911  -0.003934
     5  C   -0.013991   0.000323   0.001597   0.000023   0.009927   0.000968
     6  C   -0.036326  -0.002068   0.010902   0.000037  -0.007571  -0.005603
     7  H    0.000325   0.000008  -0.000147  -0.000001   0.002588  -0.001509
     8  H   -0.004770  -0.000071   0.001907   0.000019  -0.001668   0.000248
     9  C    0.009959   0.002619  -0.002070  -0.000054   0.001406   0.000272
    10  H    0.000597   0.000220  -0.000031  -0.000001  -0.000031  -0.000009
    11  H    0.000987  -0.001531  -0.000007   0.000008   0.000267  -0.000021
    12  C    0.001611  -0.000145  -0.000315  -0.000000  -0.002044  -0.000014
    13  H    0.000023  -0.000001  -0.000000   0.000000  -0.000056   0.000009
    14  C    0.001272   0.000299  -0.000159  -0.000001   0.001978   0.000056
    15  H   -0.000042   0.000001   0.000002   0.000000  -0.000006   0.000001
    16  C   -0.006667  -0.001751   0.000936   0.000016  -0.000914  -0.000102
    17  H   -0.003390   0.001525   0.000490  -0.000001   0.000485   0.000010
    18  H    0.000274  -0.000024  -0.000044  -0.000001  -0.000022  -0.000001
    19  C    5.185044   0.424366   0.287421  -0.036274  -0.057709   0.009370
    20  H    0.424366   0.474162  -0.029389  -0.003155   0.002807  -0.000014
    21  C    0.287421  -0.029389   5.010595   0.424991   0.036732  -0.004709
    22  H   -0.036274  -0.003155   0.424991   0.488531  -0.000288   0.000025
    23  C   -0.057709   0.002807   0.036732  -0.000288   4.994029   0.464343
    24  H    0.009370  -0.000014  -0.004709   0.000025   0.464343   0.532130
    25  H   -0.004876  -0.000259   0.001534  -0.000051   0.385757  -0.020683
    26  C   -0.001627  -0.000839  -0.056911   0.004219   0.342825  -0.057341
    27  H   -0.003190   0.000027   0.006293  -0.000089  -0.044663  -0.000681
    28  H    0.009213   0.000016  -0.014247  -0.000373  -0.032707  -0.008216
              25         26         27         28
     1  C    0.003661   0.276089  -0.039151  -0.035458
     2  C   -0.035571  -0.058832   0.011620  -0.001563
     3  H   -0.000055  -0.028961  -0.004398   0.000982
     4  H   -0.000578   0.003572  -0.000082  -0.000131
     5  C    0.000602  -0.006663   0.000275  -0.003334
     6  C    0.000538   0.013102   0.000472  -0.000491
     7  H    0.000220  -0.001729  -0.000024   0.001540
     8  H   -0.000132   0.000682   0.000234  -0.001488
     9  C   -0.000032  -0.000915  -0.000022   0.000484
    10  H    0.000004   0.000070   0.000001  -0.000003
    11  H   -0.000009  -0.000102  -0.000001   0.000010
    12  C   -0.000031   0.000939  -0.000044   0.000490
    13  H   -0.000001   0.000016  -0.000001  -0.000001
    14  C   -0.000042  -0.000626   0.000003  -0.000037
    15  H   -0.000001   0.000000   0.000000  -0.000001
    16  C    0.000070   0.000905  -0.000004   0.000059
    17  H   -0.000003   0.000059   0.000002  -0.000018
    18  H    0.000001  -0.000004  -0.000000   0.000002
    19  C   -0.004876  -0.001627  -0.003190   0.009213
    20  H   -0.000259  -0.000839   0.000027   0.000016
    21  C    0.001534  -0.056911   0.006293  -0.014247
    22  H   -0.000051   0.004219  -0.000089  -0.000373
    23  C    0.385757   0.342825  -0.044663  -0.032707
    24  H   -0.020683  -0.057341  -0.000681  -0.008216
    25  H    0.569053  -0.021172  -0.008804   0.006537
    26  C   -0.021172   4.942831   0.437410   0.401651
    27  H   -0.008804   0.437410   0.537187  -0.022095
    28  H    0.006537   0.401651  -0.022095   0.583460
          Atomic-Atomic Spin Densities.
               1          2          3          4          5          6
     1  C    0.000001   0.000000  -0.000000  -0.000000  -0.000000  -0.000000
     2  C    0.000000  -0.000001  -0.000000  -0.000000   0.000000   0.000000
     3  H   -0.000000  -0.000000  -0.000000  -0.000000   0.000000  -0.000000
     4  H   -0.000000  -0.000000  -0.000000   0.000000   0.000000  -0.000000
     5  C   -0.000000   0.000000   0.000000   0.000000   0.000000  -0.000000
     6  C   -0.000000   0.000000  -0.000000  -0.000000  -0.000000  -0.000000
     7  H    0.000000  -0.000000  -0.000000   0.000000   0.000000   0.000000
     8  H   -0.000000   0.000000   0.000000   0.000000  -0.000000   0.000000
     9  C    0.000000  -0.000000   0.000000   0.000000  -0.000000  -0.000000
    10  H    0.000000   0.000000   0.000000  -0.000000   0.000000   0.000000
    11  H   -0.000000   0.000000  -0.000000  -0.000000  -0.000000   0.000000
    12  C    0.000000  -0.000000  -0.000000  -0.000000   0.000000  -0.000000
    13  H   -0.000000  -0.000000  -0.000000  -0.000000  -0.000000   0.000000
    14  C    0.000000   0.000000   0.000000   0.000000  -0.000000  -0.000000
    15  H   -0.000000   0.000000   0.000000  -0.000000  -0.000000   0.000000
    16  C    0.000000  -0.000000  -0.000000  -0.000000   0.000000   0.000000
    17  H   -0.000000   0.000000   0.000000  -0.000000  -0.000000   0.000000
    18  H    0.000000  -0.000000   0.000000  -0.000000   0.000000   0.000000
    19  C   -0.000000  -0.000000  -0.000000   0.000000  -0.000000  -0.000000
    20  H   -0.000000  -0.000000  -0.000000  -0.000000   0.000000   0.000000
    21  C   -0.000000   0.000000  -0.000000   0.000000  -0.000000   0.000000
    22  H    0.000000  -0.000000   0.000000   0.000000   0.000000   0.000000
    23  C    0.000000   0.000000  -0.000000   0.000000   0.000000   0.000000
    24  H    0.000000  -0.000000   0.000000  -0.000000  -0.000000  -0.000000
    25  H    0.000000  -0.000000  -0.000000  -0.000000  -0.000000  -0.000000
    26  C   -0.000000  -0.000000   0.000000   0.000000  -0.000000   0.000000
    27  H   -0.000000  -0.000000   0.000000  -0.000000  -0.000000  -0.000000
    28  H   -0.000000  -0.000000  -0.000000  -0.000000   0.000000  -0.000000
               7          8          9         10         11         12
     1  C    0.000000  -0.000000   0.000000   0.000000  -0.000000   0.000000
     2  C   -0.000000   0.000000  -0.000000   0.000000   0.000000  -0.000000
     3  H   -0.000000   0.000000   0.000000   0.000000  -0.000000  -0.000000
     4  H    0.000000   0.000000   0.000000  -0.000000  -0.000000  -0.000000
     5  C    0.000000  -0.000000  -0.000000   0.000000  -0.000000   0.000000
     6  C    0.000000   0.000000  -0.000000   0.000000   0.000000  -0.000000
     7  H   -0.000000   0.000000  -0.000000   0.000000   0.000000   0.000000
     8  H    0.000000  -0.000000  -0.000000   0.000000  -0.000000  -0.000000
     9  C   -0.000000  -0.000000   0.000001   0.000000  -0.000000   0.000000
    10  H    0.000000   0.000000   0.000000  -0.000000   0.000000  -0.000000
    11  H    0.000000  -0.000000  -0.000000   0.000000  -0.000000   0.000000
    12  C    0.000000  -0.000000   0.000000  -0.000000   0.000000  -0.000000
    13  H   -0.000000  -0.000000  -0.000000   0.000000   0.000000   0.000000
    14  C   -0.000000   0.000000  -0.000000  -0.000000  -0.000000   0.000000
    15  H    0.000000  -0.000000   0.000000   0.000000  -0.000000   0.000000
    16  C    0.000000  -0.000000  -0.000000   0.000000   0.000000  -0.000000
    17  H    0.000000   0.000000  -0.000000  -0.000000   0.000000  -0.000000
    18  H   -0.000000   0.000000  -0.000000   0.000000   0.000000   0.000000
    19  C   -0.000000  -0.000000  -0.000000   0.000000   0.000000   0.000000
    20  H   -0.000000  -0.000000  -0.000000   0.000000  -0.000000  -0.000000
    21  C    0.000000   0.000000   0.000000  -0.000000  -0.000000   0.000000
    22  H    0.000000   0.000000   0.000000  -0.000000   0.000000  -0.000000
    23  C    0.000000  -0.000000   0.000000   0.000000  -0.000000  -0.000000
    24  H    0.000000   0.000000   0.000000  -0.000000  -0.000000   0.000000
    25  H   -0.000000   0.000000  -0.000000   0.000000   0.000000   0.000000
    26  C    0.000000   0.000000  -0.000000  -0.000000   0.000000   0.000000
    27  H    0.000000   0.000000   0.000000  -0.000000  -0.000000   0.000000
    28  H   -0.000000   0.000000  -0.000000   0.000000   0.000000  -0.000000
              13         14         15         16         17         18
     1  C   -0.000000   0.000000  -0.000000   0.000000  -0.000000   0.000000
     2  C   -0.000000   0.000000   0.000000  -0.000000   0.000000  -0.000000
     3  H   -0.000000   0.000000   0.000000  -0.000000   0.000000   0.000000
     4  H   -0.000000   0.000000  -0.000000  -0.000000  -0.000000  -0.000000
     5  C   -0.000000  -0.000000  -0.000000   0.000000  -0.000000   0.000000
     6  C    0.000000  -0.000000   0.000000   0.000000   0.000000   0.000000
     7  H   -0.000000  -0.000000   0.000000   0.000000   0.000000  -0.000000
     8  H   -0.000000   0.000000  -0.000000  -0.000000   0.000000   0.000000
     9  C   -0.000000  -0.000000   0.000000  -0.000000  -0.000000  -0.000000
    10  H    0.000000  -0.000000   0.000000   0.000000  -0.000000   0.000000
    11  H    0.000000  -0.000000  -0.000000   0.000000   0.000000   0.000000
    12  C    0.000000   0.000000   0.000000  -0.000000  -0.000000   0.000000
    13  H    0.000000  -0.000000  -0.000000   0.000000   0.000000  -0.000000
    14  C   -0.000000  -0.000000  -0.000000   0.000000  -0.000000   0.000000
    15  H   -0.000000  -0.000000   0.000000  -0.000000  -0.000000  -0.000000
    16  C    0.000000   0.000000  -0.000000  -0.000000   0.000000   0.000000
    17  H    0.000000  -0.000000  -0.000000   0.000000   0.000000  -0.000000
    18  H   -0.000000   0.000000  -0.000000   0.000000  -0.000000   0.000000
    19  C   -0.000000   0.000000  -0.000000   0.000000  -0.000000   0.000000
    20  H   -0.000000  -0.000000   0.000000  -0.000000   0.000000  -0.000000
    21  C    0.000000  -0.000000   0.000000  -0.000000   0.000000  -0.000000
    22  H    0.000000   0.000000   0.000000  -0.000000   0.000000  -0.000000
    23  C   -0.000000  -0.000000  -0.000000   0.000000   0.000000  -0.000000
    24  H    0.000000   0.000000   0.000000  -0.000000  -0.000000   0.000000
    25  H    0.000000  -0.000000  -0.000000   0.000000  -0.000000   0.000000
    26  C    0.000000  -0.000000   0.000000   0.000000  -0.000000  -0.000000
    27  H    0.000000  -0.000000   0.000000   0.000000  -0.000000  -0.000000
[...]
     2  C   -0.000000  -0.000000  -0.000000   0.000000
     3  H   -0.000000   0.000000   0.000000  -0.000000
     4  H   -0.000000   0.000000   0.000000  -0.000000
     5  C   -0.000000  -0.000000  -0.000000   0.000000
     6  C   -0.000000   0.000000   0.000000  -0.000000
     7  H   -0.000000  -0.000000   0.000000  -0.000000
     8  H    0.000000   0.000000   0.000000   0.000000
     9  C   -0.000000  -0.000000   0.000000  -0.000000
    10  H   -0.000000  -0.000000  -0.000000   0.000000
    11  H    0.000000   0.000000  -0.000000   0.000000
    12  C    0.000000   0.000000   0.000000  -0.000000
    13  H    0.000000   0.000000   0.000000  -0.000000
    14  C   -0.000000  -0.000000  -0.000000   0.000000
    15  H   -0.000000   0.000000  -0.000000  -0.000000
    16  C    0.000000  -0.000000   0.000000   0.000000
    17  H   -0.000000  -0.000000  -0.000000  -0.000000
    18  H    0.000000  -0.000000   0.000000   0.000000
    19  C   -0.000000  -0.000000  -0.000000   0.000000
    20  H   -0.000000  -0.000000   0.000000  -0.000000
    21  C    0.000000   0.000000  -0.000000   0.000000
    22  H   -0.000000  -0.000000   0.000000  -0.000000
    23  C   -0.000000   0.000000   0.000000   0.000000
    24  H   -0.000000  -0.000000  -0.000000  -0.000000
    25  H    0.000000  -0.000000  -0.000000   0.000000
    26  C   -0.000000   0.000000  -0.000000  -0.000000
    27  H   -0.000000  -0.000000  -0.000000   0.000000
    28  H    0.000000  -0.000000   0.000000  -0.000000
 Mulliken charges and spin densities:
               1          2
     1  C   -0.204632  -0.000000
     2  C   -0.201437   0.000000
     3  H    0.148076  -0.000000
     4  H    0.173648  -0.000000
     5  C   -0.187949  -0.000000
     6  C   -0.198104   0.000001
     7  H    0.167288  -0.000000
     8  H    0.172389  -0.000000
     9  C   -0.225811   0.000001
    10  H    0.131557  -0.000000
    11  H    0.146926  -0.000000
    12  C   -0.163066   0.000001
    13  H    0.151673   0.000000
    14  C   -0.202972  -0.000001
    15  H    0.147998   0.000000
    16  C   -0.194056  -0.000000
    17  H    0.121201   0.000000
    18  H    0.133162   0.000000
    19  C   -0.187902  -0.000000
    20  H    0.167972   0.000000
    21  C   -0.159848   0.000000
    22  H    0.151011  -0.000000
    23  C   -0.225147  -0.000001
    24  H    0.146573   0.000000
    25  H    0.131764   0.000000
    26  C   -0.192847   0.000000
    27  H    0.133350  -0.000000
    28  H    0.119181  -0.000000
 Sum of Mulliken charges =  -0.00000   0.00000
 Mulliken charges and spin densities with hydrogens summed into heavy atoms:
               1          2
     1  C   -0.056556  -0.000000
     2  C   -0.027789   0.000000
     5  C   -0.020661  -0.000001
     6  C   -0.025715   0.000001
     9  C    0.052672   0.000000
    12  C   -0.011393   0.000001
    14  C   -0.054974  -0.000001
    16  C    0.060307  -0.000000
    19  C   -0.019930  -0.000000
    21  C   -0.008837   0.000000
    23  C    0.053191  -0.000000
    26  C    0.059685   0.000000
 Electronic spatial extent (au):  <R**2>=           2277.7152
 Charge=             -0.0000 electrons
 Dipole moment (field-independent basis, Debye):
    X=              0.0004    Y=             -0.0076    Z=             -0.0068  Tot=              0.0102
 Quadrupole moment (field-independent basis, Debye-Ang):
   XX=            -70.2129   YY=            -68.1450   ZZ=            -75.4636
   XY=             -3.3847   XZ=             -3.6616   YZ=             -1.7131
 Traceless Quadrupole moment (field-independent basis, Debye-Ang):
   XX=              1.0609   YY=              3.1288   ZZ=             -4.1897
   XY=             -3.3847   XZ=             -3.6616   YZ=             -1.7131
 Octapole moment (field-independent basis, Debye-Ang**2):
  XXX=             -0.0287  YYY=             -0.0438  ZZZ=             -0.0295  XYY=             -0.0032
  XXY=             -0.0082  XXZ=             -0.0323  XZZ=              0.0133  YZZ=             -0.0169
  YYZ=             -0.0143  XYZ=              0.0147
 Hexadecapole moment (field-independent basis, Debye-Ang**3):
 XXXX=          -2024.6053 YYYY=           -610.5876 ZZZZ=           -386.2164 XXXY=           -109.9628
 XXXZ=           -146.4615 YYYX=            -62.1099 YYYZ=             -5.0510 ZZZX=            -90.3328
 ZZZY=            -17.1933 XXYY=           -435.9067 XXZZ=           -425.9204 YYZZ=           -181.2271
 XXYZ=            -24.3982 YYXZ=            -33.0020 ZZXY=            -45.6288
 N-N= 6.782002869452D+02 E-N=-2.439035488859D+03  KE= 4.643368432096D+02
                          Isotropic Fermi Contact Couplings
        Atom                 a.u.       MegaHertz       Gauss      10(-4) cm-1
     1  C(13)             -0.00000      -0.00002      -0.00001      -0.00001
     2  C(13)              0.00000       0.00006       0.00002       0.00002
     3  H(1)               0.00000       0.00001       0.00000       0.00000
     4  H(1)              -0.00000      -0.00003      -0.00001      -0.00001
     5  C(13)             -0.00000      -0.00001      -0.00000      -0.00000
     6  C(13)              0.00000       0.00002       0.00001       0.00001
     7  H(1)              -0.00000      -0.00004      -0.00002      -0.00001
     8  H(1)              -0.00000      -0.00002      -0.00001      -0.00001
     9  C(13)              0.00000       0.00015       0.00005       0.00005
    10  H(1)              -0.00000      -0.00006      -0.00002      -0.00002
    11  H(1)              -0.00000      -0.00010      -0.00004      -0.00003
    12  C(13)              0.00000       0.00002       0.00001       0.00001
    13  H(1)               0.00000       0.00002       0.00001       0.00001
    14  C(13)             -0.00000      -0.00005      -0.00002      -0.00002
    15  H(1)               0.00000       0.00004       0.00001       0.00001
    16  C(13)             -0.00000      -0.00008      -0.00003      -0.00003
    17  H(1)              -0.00000      -0.00000      -0.00000      -0.00000
    18  H(1)               0.00000       0.00000       0.00000       0.00000
    19  C(13)             -0.00000      -0.00007      -0.00002      -0.00002
    20  H(1)               0.00000       0.00008       0.00003       0.00003
    21  C(13)              0.00000       0.00006       0.00002       0.00002
    22  H(1)              -0.00000      -0.00006      -0.00002      -0.00002
    23  C(13)             -0.00000      -0.00018      -0.00007      -0.00006
    24  H(1)               0.00000       0.00012       0.00004       0.00004
    25  H(1)               0.00000       0.00012       0.00004       0.00004
    26  C(13)              0.00000       0.00011       0.00004       0.00004
    27  H(1)              -0.00000      -0.00003      -0.00001      -0.00001
    28  H(1)              -0.00000      -0.00006      -0.00002      -0.00002
 --------------------------------------------------------
       Center         ----  Spin Dipole Couplings  ----
                      3XX-RR        3YY-RR        3ZZ-RR
 --------------------------------------------------------
     1   Atom        0.000000      0.000000     -0.000000
     2   Atom       -0.000000     -0.000000      0.000000
     3   Atom       -0.000000      0.000000      0.000000
     4   Atom        0.000000     -0.000000      0.000000
     5   Atom        0.000000      0.000000     -0.000001
     6   Atom       -0.000000     -0.000000      0.000000
     7   Atom       -0.000000      0.000000     -0.000000
     8   Atom        0.000000     -0.000000      0.000000
     9   Atom        0.000000     -0.000000      0.000000
    10   Atom       -0.000000     -0.000000      0.000000
    11   Atom       -0.000000      0.000000     -0.000000
    12   Atom       -0.000000     -0.000000      0.000001
    13   Atom       -0.000000      0.000000      0.000000
    14   Atom       -0.000000      0.000000     -0.000000
    15   Atom       -0.000000      0.000000     -0.000000
    16   Atom       -0.000000      0.000000     -0.000000
    17   Atom        0.000000      0.000000     -0.000000
    18   Atom        0.000000     -0.000000      0.000000
    19   Atom       -0.000000      0.000000     -0.000000
    20   Atom        0.000000     -0.000000      0.000000
    21   Atom        0.000000     -0.000000      0.000000
    22   Atom       -0.000000      0.000000     -0.000000
    23   Atom       -0.000000      0.000000     -0.000000
    24   Atom       -0.000000     -0.000000      0.000000
    25   Atom        0.000000      0.000000     -0.000000
    26   Atom        0.000000     -0.000000      0.000000
    27   Atom        0.000000      0.000000     -0.000000
    28   Atom       -0.000000     -0.000000      0.000000
 --------------------------------------------------------
                        XY            XZ            YZ
 --------------------------------------------------------
     1   Atom       -0.000000     -0.000000     -0.000000
     2   Atom       -0.000000      0.000000      0.000000
     3   Atom       -0.000000     -0.000000     -0.000000
     4   Atom        0.000000     -0.000000     -0.000000
     5   Atom       -0.000000     -0.000000     -0.000000
     6   Atom        0.000000      0.000001      0.000000
     7   Atom        0.000000     -0.000000     -0.000000
     8   Atom        0.000000     -0.000000      0.000000
     9   Atom        0.000000      0.000000      0.000000
    10   Atom       -0.000000      0.000000     -0.000000
    11   Atom        0.000000      0.000000      0.000000
    12   Atom        0.000000      0.000000      0.000000
    13   Atom        0.000000      0.000000     -0.000000
    14   Atom        0.000000     -0.000001      0.000000
    15   Atom       -0.000000      0.000000      0.000000
    16   Atom        0.000000      0.000000      0.000000
    17   Atom       -0.000000     -0.000000     -0.000000
    18   Atom        0.000000     -0.000000      0.000000
    19   Atom        0.000000     -0.000000     -0.000000
    20   Atom        0.000000      0.000000     -0.000000
    21   Atom       -0.000000      0.000000     -0.000000
    22   Atom        0.000000      0.000000     -0.000000
    23   Atom       -0.000000      0.000000     -0.000000
    24   Atom       -0.000000     -0.000000     -0.000000
    25   Atom        0.000000     -0.000000      0.000000
    26   Atom       -0.000000     -0.000000     -0.000000
    27   Atom       -0.000000      0.000000     -0.000000
    28   Atom        0.000000      0.000000      0.000000
 --------------------------------------------------------


 ---------------------------------------------------------------------------------
              Anisotropic Spin Dipole Couplings in Principal Axis System
 ---------------------------------------------------------------------------------

       Atom             a.u.   MegaHertz   Gauss  10(-4) cm-1        Axes

              Baa    -0.0000    -0.000    -0.000    -0.000  0.1490  0.1212  0.9814
     1 C(13)  Bbb     0.0000     0.000     0.000     0.000  0.3626  0.9166 -0.1683
              Bcc     0.0000     0.000     0.000     0.000  0.9200 -0.3809 -0.0927
 
              Baa    -0.0000    -0.000    -0.000    -0.000  0.8035  0.5028 -0.3187
     2 C(13)  Bbb    -0.0000    -0.000    -0.000    -0.000 -0.5506  0.8312 -0.0767
              Bcc     0.0000     0.000     0.000     0.000  0.2264  0.2371  0.9447
 
              Baa    -0.0000    -0.000    -0.000    -0.000  0.9834  0.1448  0.1097
     3 H(1)   Bbb     0.0000     0.000     0.000     0.000 -0.1505  0.3117  0.9382
              Bcc     0.0000     0.000     0.000     0.000 -0.1017  0.9391 -0.3283
 
              Baa    -0.0000    -0.000    -0.000    -0.000 -0.1453  0.9891 -0.0251
     4 H(1)   Bbb    -0.0000    -0.000    -0.000    -0.000  0.2666  0.0636  0.9617
              Bcc     0.0000     0.000     0.000     0.000  0.9528  0.1330 -0.2729
 
              Baa    -0.0000    -0.000    -0.000    -0.000  0.2914  0.1093  0.9503
     5 C(13)  Bbb     0.0000     0.000     0.000     0.000  0.9092  0.2773 -0.3107
              Bcc     0.0000     0.000     0.000     0.000 -0.2975  0.9546 -0.0186
 
              Baa    -0.0000    -0.000    -0.000    -0.000 -0.4891  0.8606  0.1418
     6 C(13)  Bbb    -0.0000    -0.000    -0.000    -0.000  0.6837  0.4793 -0.5504
              Bcc     0.0000     0.000     0.000     0.000  0.5416  0.1722  0.8228
 
              Baa    -0.0000    -0.000    -0.000    -0.000  0.6235 -0.1581  0.7657
     7 H(1)   Bbb     0.0000     0.000     0.000     0.000 -0.5452  0.6140  0.5708
              Bcc     0.0000     0.000     0.000     0.000  0.5603  0.7733 -0.2966
 
              Baa    -0.0000    -0.000    -0.000    -0.000 -0.0965  0.9845 -0.1465
     8 H(1)   Bbb    -0.0000    -0.000    -0.000    -0.000  0.7088  0.1713  0.6842
              Bcc     0.0000     0.000     0.000     0.000 -0.6987  0.0378  0.7144
 
              Baa    -0.0000    -0.000    -0.000    -0.000 -0.4163  0.9092  0.0027
     9 C(13)  Bbb     0.0000     0.000     0.000     0.000 -0.2597 -0.1218  0.9580
              Bcc     0.0000     0.000     0.000     0.000  0.8713  0.3981  0.2869
 
              Baa    -0.0000    -0.000    -0.000    -0.000  0.7728  0.5412 -0.3315
    10 H(1)   Bbb    -0.0000    -0.000    -0.000    -0.000 -0.4133  0.8255  0.3843
              Bcc     0.0000     0.000     0.000     0.000  0.4817 -0.1599  0.8616
 
              Baa    -0.0000    -0.000    -0.000    -0.000  0.0807 -0.2113  0.9741
    11 H(1)   Bbb    -0.0000    -0.000    -0.000    -0.000  0.8619 -0.4761 -0.1747
              Bcc     0.0000     0.000     0.000     0.000  0.5007  0.8536  0.1437
 
              Baa    -0.0000    -0.000    -0.000    -0.000 -0.3440  0.9375  0.0517
    12 C(13)  Bbb    -0.0000    -0.000    -0.000    -0.000  0.8938  0.3438 -0.2879
              Bcc     0.0000     0.000     0.000     0.000  0.2877  0.0528  0.9563
 
              Baa    -0.0000    -0.000    -0.000    -0.000  0.7948 -0.5493 -0.2581
    13 H(1)   Bbb     0.0000     0.000     0.000     0.000 -0.0346 -0.4656  0.8843
              Bcc     0.0000     0.000     0.000     0.000  0.6059  0.6939  0.3891
 
              Baa    -0.0000    -0.000    -0.000    -0.000  0.6112 -0.0968  0.7856
    14 C(13)  Bbb     0.0000     0.000     0.000     0.000  0.7442  0.4081 -0.5287
              Bcc     0.0000     0.000     0.000     0.000 -0.2694  0.9078  0.3215
 
              Baa    -0.0000    -0.000    -0.000    -0.000 -0.6434 -0.1536  0.7500
    15 H(1)   Bbb     0.0000     0.000     0.000     0.000  0.7620 -0.0344  0.6467
              Bcc     0.0000     0.000     0.000     0.000 -0.0735  0.9875  0.1392
 
              Baa    -0.0000    -0.000    -0.000    -0.000  0.7331  0.0018 -0.6801
    16 C(13)  Bbb     0.0000     0.000     0.000     0.000  0.6787 -0.0668  0.7314
              Bcc     0.0000     0.000     0.000     0.000  0.0441  0.9978  0.0502
 
              Baa    -0.0000    -0.000    -0.000    -0.000  0.4790  0.4620  0.7464
    17 H(1)   Bbb     0.0000     0.000     0.000     0.000  0.3616  0.6709 -0.6474
              Bcc     0.0000     0.000     0.000     0.000  0.7998 -0.5800 -0.1543
 
              Baa    -0.0000    -0.000    -0.000    -0.000 -0.5238  0.7871 -0.3257
    18 H(1)   Bbb     0.0000     0.000     0.000     0.000  0.8477  0.5191 -0.1089
              Bcc     0.0000     0.000     0.000     0.000 -0.0834  0.3332  0.9392
 
              Baa    -0.0000    -0.000    -0.000    -0.000  0.6777  0.1992  0.7078
    19 C(13)  Bbb     0.0000     0.000     0.000     0.000 -0.4339  0.8855  0.1663
              Bcc     0.0000     0.000     0.000     0.000 -0.5937 -0.4198  0.6865
 
              Baa    -0.0000    -0.000    -0.000    -0.000 -0.5384  0.8090  0.2358
    20 H(1)   Bbb     0.0000     0.000     0.000     0.000  0.5386  0.1151  0.8346
              Bcc     0.0000     0.000     0.000     0.000  0.6481  0.5764 -0.4978
 
              Baa    -0.0000    -0.000    -0.000    -0.000 -0.6026  0.3514  0.7165
    21 C(13)  Bbb    -0.0000    -0.000    -0.000    -0.000  0.3391  0.9255 -0.1687
              Bcc     0.0000     0.000     0.000     0.000  0.7224 -0.1413  0.6769
 
              Baa    -0.0000    -0.000    -0.000    -0.000  0.6518 -0.4436 -0.6151
    22 H(1)   Bbb    -0.0000    -0.000    -0.000    -0.000  0.6820 -0.0120  0.7313
              Bcc     0.0000     0.000     0.000     0.000  0.3318  0.8962 -0.2947
 
              Baa    -0.0000    -0.000    -0.000    -0.000  0.8811  0.4395 -0.1745
    23 C(13)  Bbb    -0.0000    -0.000    -0.000    -0.000  0.1368  0.1163  0.9837
              Bcc     0.0000     0.000     0.000     0.000 -0.4526  0.8907 -0.0424
 
              Baa    -0.0000    -0.000    -0.000    -0.000  0.6181  0.7720  0.1484
    24 H(1)   Bbb     0.0000     0.000     0.000     0.000 -0.2629  0.0250  0.9645
              Bcc     0.0000     0.000     0.000     0.000  0.7408 -0.6352  0.2184
 
              Baa    -0.0000    -0.000    -0.000    -0.000  0.4038 -0.0979  0.9096
    25 H(1)   Bbb     0.0000     0.000     0.000     0.000  0.7715  0.5707 -0.2811
              Bcc     0.0000     0.000     0.000     0.000 -0.4916  0.8153  0.3060
 
              Baa    -0.0000    -0.000    -0.000    -0.000  0.0868  0.9946  0.0578
    26 C(13)  Bbb    -0.0000    -0.000    -0.000    -0.000  0.6745 -0.1013  0.7313
              Bcc     0.0000     0.000     0.000     0.000  0.7332 -0.0245 -0.6796
 
              Baa    -0.0000    -0.000    -0.000    -0.000  0.5787  0.7835  0.2263
    27 H(1)   Bbb    -0.0000    -0.000    -0.000    -0.000 -0.3603 -0.0033  0.9328
              Bcc     0.0000     0.000     0.000     0.000  0.7316 -0.6213  0.2804
 
              Baa    -0.0000    -0.000    -0.000    -0.000  0.2790  0.8792 -0.3861
    28 H(1)   Bbb    -0.0000    -0.000    -0.000    -0.000  0.8875 -0.3897 -0.2458
              Bcc     0.0000     0.000     0.000     0.000  0.3666  0.2741  0.8891
 

 ---------------------------------------------------------------------------------

 No NMR shielding tensors so no spin-rotation constants.
 Leave Link  601 at Tue Aug  4 03:58:36 2020, MaxMem=  6442450944 cpu:               7.9 elap:               0.4
 (Enter /scratch/scicomp/CentOS/7.3.1611/Haswell/software/Gaussian/g16/l9999.exe)
 1\1\GINC-ATLAS-205\SP\UwB97XD\def2TZVP\C12H16\BOCHEN\04-Aug-2020\0\\#p
  uwb97xd guess=mix def2tzvp # scrf=(iefpcm,solvent=Cyclohexane,read) n
 osym 6d 10f\\endo-2 xp-pcm for eta=3\\0,1\C,0,-3.127681,-0.441423,0.25
 8958\C,0,-0.708381,-0.245534,-1.202422\H,0,-4.076548,-0.536846,0.77411
 1\H,0,0.248962,-0.160472,-1.700991\C,0,1.152306,1.422704,0.77243\C,0,0
 .708381,0.245534,1.202422\H,0,0.558988,2.319273,0.905524\H,0,-0.248962
 ,0.160472,1.700991\C,0,1.545018,-0.9962,1.092829\H,0,2.059657,-1.12685
 6,2.053246\H,0,0.90429,-1.869997,0.974198\C,0,2.450083,1.52831,0.10643
 5\H,0,2.850945,2.514335,-0.096069\C,0,3.127681,0.441423,-0.258958\H,0,
 4.076548,0.536846,-0.774111\C,0,2.57933,-0.941931,-0.03718\H,0,2.13576
 3,-1.29167,-0.977567\H,0,3.392662,-1.637636,0.178291\C,0,-1.152306,-1.
 422704,-0.77243\H,0,-0.558988,-2.319273,-0.905524\C,0,-2.450083,-1.528
 31,-0.106435\H,0,-2.850945,-2.514335,0.096069\C,0,-1.545018,0.9962,-1.
 092829\H,0,-0.90429,1.869997,-0.974198\H,0,-2.059657,1.126856,-2.05324
 6\C,0,-2.57933,0.941931,0.03718\H,0,-3.392662,1.637636,-0.178291\H,0,-
 2.135763,1.29167,0.977567\\Version=ES64L-G16RevB.01\HF=-466.8076064\S2
 =0.\S2-1=0.\S2A=0.\RMSD=2.994e-09\Dipole=0.0001379,-0.0029962,-0.00267
 99\Quadrupole=0.7887883,2.3261812,-3.1149696,-2.5164443,-2.7222921,-1.
 2736361\PG=CI [X(C12H16)]\\@


 Age does not diminish the extreme disappointment of
 having a scoop of ice cream fall from the cone.
 -- Jim Fiebig
 Job cpu time:       0 days  2 hours 13 minutes 33.0 seconds.
 Elapsed time:       0 days  0 hours  5 minutes 37.0 seconds.
 File lengths (MBytes):  RWF=    627 Int=      0 D2E=      0 Chk=     24 Scr=      1
 Normal termination of Gaussian 16 at Tue Aug  4 03:58:36 2020.
