 Entering Gaussian System, Link 0=g16
 Input=meso-TS_1_1_pcm.com
 Output=meso-TS_1_1_pcm.log
 Initial command:
 /scratch/scicomp/CentOS/7.3.1611/Haswell/software/Gaussian/g16/l1.exe "/scratch/bochen/cyclohexadiene-dimerization/wb97xd-def2tzvp/xp-pcm/meso/Gau-52093.inp" -scrdir="/scratch/bochen/cyclohexadiene-dimerization/wb97xd-def2tzvp/xp-pcm/meso/"
 Entering Link 1 = /scratch/scicomp/CentOS/7.3.1611/Haswell/software/Gaussian/g16/l1.exe PID=     52094.
  
 Copyright (c) 1988-2017, Gaussian, Inc.  All Rights Reserved.
  
 This is part of the Gaussian(R) 16 program.  It is based on
 the Gaussian(R) 09 system (copyright 2009, Gaussian, Inc.),
 the Gaussian(R) 03 system (copyright 2003, Gaussian, Inc.),
 the Gaussian(R) 98 system (copyright 1998, Gaussian, Inc.),
 the Gaussian(R) 94 system (copyright 1995, Gaussian, Inc.),
 the Gaussian 92(TM) system (copyright 1992, Gaussian, Inc.),
 the Gaussian 90(TM) system (copyright 1990, Gaussian, Inc.),
 the Gaussian 88(TM) system (copyright 1988, Gaussian, Inc.),
 the Gaussian 86(TM) system (copyright 1986, Carnegie Mellon
 University), and the Gaussian 82(TM) system (copyright 1983,
 Carnegie Mellon University). Gaussian is a federally registered
 trademark of Gaussian, Inc.
  
 This software contains proprietary and confidential information,
 including trade secrets, belonging to Gaussian, Inc.
  
 This software is provided under written license and may be
 used, copied, transmitted, or stored only in accord with that
 written license.
  
 The following legend is applicable only to US Government
 contracts under FAR:
  
                    RESTRICTED RIGHTS LEGEND
  
 Use, reproduction and disclosure by the US Government is
 subject to restrictions as set forth in subparagraphs (a)
 and (c) of the Commercial Computer Software - Restricted
 Rights clause in FAR 52.227-19.
  
 Gaussian, Inc.
 340 Quinnipiac St., Bldg. 40, Wallingford CT 06492
  
  
 ---------------------------------------------------------------
 Warning -- This program may not be used in any manner that
 competes with the business of Gaussian, Inc. or will provide
 assistance to any competitor of Gaussian, Inc.  The licensee
 of this program is prohibited from giving any competitor of
 Gaussian, Inc. access to this program.  By using this program,
 the user acknowledges that Gaussian, Inc. is engaged in the
 business of creating and licensing software in the field of
 computational chemistry and represents and warrants to the
 licensee that it is not a competitor of Gaussian, Inc. and that
 it will not use this program in any manner prohibited above.
 ---------------------------------------------------------------
  

 Cite this work as:
 Gaussian 16, Revision B.01,
 M. J. Frisch, G. W. Trucks, H. B. Schlegel, G. E. Scuseria, 
 M. A. Robb, J. R. Cheeseman, G. Scalmani, V. Barone, 
 G. A. Petersson, H. Nakatsuji, X. Li, M. Caricato, A. V. Marenich, 
 J. Bloino, B. G. Janesko, R. Gomperts, B. Mennucci, H. P. Hratchian, 
 J. V. Ortiz, A. F. Izmaylov, J. L. Sonnenberg, D. Williams-Young, 
 F. Ding, F. Lipparini, F. Egidi, J. Goings, B. Peng, A. Petrone, 
 T. Henderson, D. Ranasinghe, V. G. Zakrzewski, J. Gao, N. Rega, 
 G. Zheng, W. Liang, M. Hada, M. Ehara, K. Toyota, R. Fukuda, 
 J. Hasegawa, M. Ishida, T. Nakajima, Y. Honda, O. Kitao, H. Nakai, 
 T. Vreven, K. Throssell, J. A. Montgomery, Jr., J. E. Peralta, 
 F. Ogliaro, M. J. Bearpark, J. J. Heyd, E. N. Brothers, K. N. Kudin, 
 V. N. Staroverov, T. A. Keith, R. Kobayashi, J. Normand, 
 K. Raghavachari, A. P. Rendell, J. C. Burant, S. S. Iyengar, 
 J. Tomasi, M. Cossi, J. M. Millam, M. Klene, C. Adamo, R. Cammi, 
 J. W. Ochterski, R. L. Martin, K. Morokuma, O. Farkas, 
 J. B. Foresman, and D. J. Fox, Gaussian, Inc., Wallingford CT, 2016.
 
 ******************************************
 Gaussian 16:  ES64L-G16RevB.01 20-Dec-2017
                 3-Aug-2020 
 ******************************************
 %nproc=24
 Will use up to   24 processors via shared memory.
 %mem=48GB
 ----------------------------------------------------------------------
 #p uwb97xd guess=mix def2tzvp # scrf=(iefpcm,solvent=Cyclohexane,read)
  nosym 6d 10f
 ----------------------------------------------------------------------
 1/38=1,40=2,172=1/1;
 2/12=2,15=1,17=6,18=5,40=1/2;
 3/5=44,7=101,8=22,11=2,25=1,30=1,70=2203,72=17,74=-58,116=2/1,2,3;
 4/13=-1/1;
 5/5=2,38=5,53=17/2;
 6/7=2,8=2,9=2,10=2,28=1/1;
 99/5=1,9=1/99;
 Leave Link    1 at Mon Aug  3 16:24:57 2020, MaxMem=  6442450944 cpu:               2.9 elap:               0.1
 (Enter /scratch/scicomp/CentOS/7.3.1611/Haswell/software/Gaussian/g16/l101.exe)
 -----------------------
 endo-2 xp-pcm for eta=3
 -----------------------
 Symbolic Z-matrix:
 Charge =  0 Multiplicity = 1
 6                    -3.11898  -0.43168   0.24743 
 6                    -0.49895  -0.16098  -0.84214 
 1                    -4.084    -0.54881   0.72591 
 1                     0.35397  -0.11571  -1.51151 
 6                     1.10474   1.4191    0.68091 
 6                     0.49895   0.16098   0.84214 
 1                     0.54438   2.32227   0.8864 
 1                    -0.35397   0.11571   1.51151 
 6                     1.46262  -0.99982   0.98748 
 1                     1.89872  -0.93738   1.99035 
 1                     0.92962  -1.94975   0.93618 
 6                     2.40637   1.52255   0.1181 
 1                     2.82445   2.50923  -0.04555 
 6                     3.11898   0.43168  -0.24743 
 1                     4.084     0.54881  -0.72591 
 6                     2.59228  -0.95858  -0.04339 
 1                     2.24858  -1.35702  -1.00651 
 1                     3.40124  -1.62253   0.271 
 6                    -1.10474  -1.4191   -0.68091 
 1                    -0.54438  -2.32227  -0.8864 
 6                    -2.40637  -1.52255  -0.1181 
 1                    -2.82445  -2.50923   0.04555 
 6                    -1.46262   0.99982  -0.98748 
 1                    -0.92962   1.94975  -0.93618 
 1                    -1.89872   0.93738  -1.99035 
 6                    -2.59228   0.95858   0.04339 
 1                    -3.40124   1.62253  -0.271 
 1                    -2.24858   1.35702   1.00651 
 
 ITRead=  0  0  0  0  0  0  0  0  0  0  0  0  0  0  0  0  0  0  0  0
 ITRead=  0  0  0  0  0  0  0  0
 MicOpt= -1 -1 -1 -1 -1 -1 -1 -1 -1 -1 -1 -1 -1 -1 -1 -1 -1 -1 -1 -1
 MicOpt= -1 -1 -1 -1 -1 -1 -1 -1
 NAtoms=     28 NQM=       28 NQMF=       0 NMMI=      0 NMMIF=      0
                NMic=       0 NMicF=      0.
                    Isotopes and Nuclear Properties:
 (Nuclear quadrupole moments (NQMom) in fm**2, nuclear magnetic moments (NMagM)
  in nuclear magnetons)

  Atom         1           2           3           4           5           6           7           8           9          10
 IAtWgt=          12          12           1           1          12          12           1           1          12           1
 AtmWgt=  12.0000000  12.0000000   1.0078250   1.0078250  12.0000000  12.0000000   1.0078250   1.0078250  12.0000000   1.0078250
 NucSpn=           0           0           1           1           0           0           1           1           0           1
 AtZEff=  -0.0000000  -0.0000000  -0.0000000  -0.0000000  -0.0000000  -0.0000000  -0.0000000  -0.0000000  -0.0000000  -0.0000000
 NQMom=    0.0000000   0.0000000   0.0000000   0.0000000   0.0000000   0.0000000   0.0000000   0.0000000   0.0000000   0.0000000
 NMagM=    0.0000000   0.0000000   2.7928460   2.7928460   0.0000000   0.0000000   2.7928460   2.7928460   0.0000000   2.7928460
 AtZNuc=   6.0000000   6.0000000   1.0000000   1.0000000   6.0000000   6.0000000   1.0000000   1.0000000   6.0000000   1.0000000

  Atom        11          12          13          14          15          16          17          18          19          20
 IAtWgt=           1          12           1          12           1          12           1           1          12           1
 AtmWgt=   1.0078250  12.0000000   1.0078250  12.0000000   1.0078250  12.0000000   1.0078250   1.0078250  12.0000000   1.0078250
 NucSpn=           1           0           1           0           1           0           1           1           0           1
 AtZEff=  -0.0000000  -0.0000000  -0.0000000  -0.0000000  -0.0000000  -0.0000000  -0.0000000  -0.0000000  -0.0000000  -0.0000000
 NQMom=    0.0000000   0.0000000   0.0000000   0.0000000   0.0000000   0.0000000   0.0000000   0.0000000   0.0000000   0.0000000
 NMagM=    2.7928460   0.0000000   2.7928460   0.0000000   2.7928460   0.0000000   2.7928460   2.7928460   0.0000000   2.7928460
 AtZNuc=   1.0000000   6.0000000   1.0000000   6.0000000   1.0000000   6.0000000   1.0000000   1.0000000   6.0000000   1.0000000

  Atom        21          22          23          24          25          26          27          28
 IAtWgt=          12           1          12           1           1          12           1           1
 AtmWgt=  12.0000000   1.0078250  12.0000000   1.0078250   1.0078250  12.0000000   1.0078250   1.0078250
 NucSpn=           0           1           0           1           1           0           1           1
 AtZEff=  -0.0000000  -0.0000000  -0.0000000  -0.0000000  -0.0000000  -0.0000000  -0.0000000  -0.0000000
 NQMom=    0.0000000   0.0000000   0.0000000   0.0000000   0.0000000   0.0000000   0.0000000   0.0000000
 NMagM=    0.0000000   2.7928460   0.0000000   2.7928460   2.7928460   0.0000000   2.7928460   2.7928460
 AtZNuc=   6.0000000   1.0000000   6.0000000   1.0000000   1.0000000   6.0000000   1.0000000   1.0000000
 Leave Link  101 at Mon Aug  3 16:24:57 2020, MaxMem=  6442450944 cpu:               2.4 elap:               0.1
 (Enter /scratch/scicomp/CentOS/7.3.1611/Haswell/software/Gaussian/g16/l202.exe)
                          Input orientation:                          
 ---------------------------------------------------------------------
 Center     Atomic      Atomic             Coordinates (Angstroms)
 Number     Number       Type             X           Y           Z
 ---------------------------------------------------------------------
      1          6           0       -3.118978   -0.431679    0.247428
      2          6           0       -0.498946   -0.160979   -0.842137
      3          1           0       -4.084002   -0.548806    0.725908
      4          1           0        0.353974   -0.115713   -1.511513
      5          6           0        1.104740    1.419096    0.680914
      6          6           0        0.498946    0.160979    0.842137
      7          1           0        0.544380    2.322265    0.886395
      8          1           0       -0.353974    0.115713    1.511513
      9          6           0        1.462618   -0.999815    0.987483
     10          1           0        1.898715   -0.937376    1.990350
     11          1           0        0.929624   -1.949747    0.936184
     12          6           0        2.406372    1.522548    0.118104
     13          1           0        2.824451    2.509227   -0.045547
     14          6           0        3.118978    0.431679   -0.247428
     15          1           0        4.084002    0.548806   -0.725908
     16          6           0        2.592276   -0.958579   -0.043389
     17          1           0        2.248579   -1.357021   -1.006512
     18          1           0        3.401237   -1.622533    0.271000
     19          6           0       -1.104740   -1.419096   -0.680914
     20          1           0       -0.544380   -2.322265   -0.886395
     21          6           0       -2.406372   -1.522548   -0.118104
     22          1           0       -2.824451   -2.509227    0.045547
     23          6           0       -1.462618    0.999815   -0.987483
     24          1           0       -0.929624    1.949747   -0.936184
     25          1           0       -1.898715    0.937376   -1.990350
     26          6           0       -2.592276    0.958579    0.043389
     27          1           0       -3.401236    1.622533   -0.271000
     28          1           0       -2.248578    1.357021    1.006512
 ---------------------------------------------------------------------
                    Distance matrix (angstroms):
                    1          2          3          4          5
     1  C    0.000000
     2  C    2.850438   0.000000
     3  H    1.083482   3.932150   0.000000
     4  H    3.905778   1.085166   4.988913   0.000000
     5  C    4.631746   2.718112   5.549568   2.779573   0.000000
     6  C    3.714067   1.983992   4.639043   2.374288   1.405645
     7  H    4.627384   3.200446   5.448920   3.424902   1.082562
     8  H    3.089142   2.374288   3.869350   3.113428   2.125217
     9  C    4.675626   2.810496   5.571070   2.873275   2.464385
    10  H    5.335799   3.791379   6.127210   3.914639   2.810334
    11  H    4.378367   2.898781   5.209923   3.112278   3.383036
    12  C    5.862186   3.492449   6.839948   3.090613   1.421866
    13  H    6.637704   4.336995   7.594303   3.891352   2.161837
    14  C    6.316832   3.714067   7.334279   3.089142   2.427749
    15  H    7.334279   4.639043   8.368322   3.869350   3.407720
    16  C    5.742876   3.290869   6.732935   2.806387   2.896673
    17  H    5.589212   3.001071   6.614837   2.320646   3.444213
    18  H    6.628114   4.311223   7.575529   3.838446   3.833202
    19  C    2.427749   1.405645   3.407720   2.125217   3.845999
    20  H    3.389458   2.162216   4.274763   2.463064   4.378794
    21  C    1.353298   2.452829   2.115413   3.397099   4.649689
    22  H    2.108010   3.422021   2.427470   4.272673   5.592312
    23  C    2.513505   1.515662   3.493650   2.195226   3.090416
    24  H    3.444619   2.156268   4.353782   2.498950   2.652401
    25  H    2.893269   2.117576   3.789759   2.532368   4.048265
    26  C    1.500621   2.533692   2.227844   3.500316   3.779741
    27  H    2.137340   3.454041   2.484896   4.319951   4.609918
    28  H    2.129144   2.963619   2.660770   3.909306   3.369660
                    6          7          8          9         10
     6  C    0.000000
     7  H    2.162216   0.000000
     8  H    1.085166   2.463064   0.000000
     9  C    1.515662   3.448129   2.195226   0.000000
    10  H    2.117576   3.698405   2.532368   1.095364   0.000000
    11  H    2.156268   4.289636   2.498950   1.090452   1.753653
    12  C    2.452829   2.167218   3.397099   2.829983   3.132770
    13  H    3.422021   2.470262   4.272673   3.903219   4.108642
    14  C    2.850438   3.389458   3.905778   2.513505   2.893269
    15  H    3.932150   4.274763   4.988913   3.493650   3.789759
    16  C    2.533692   3.977727   3.500316   1.529877   2.148853
    17  H    2.963620   4.474878   3.909307   2.172866   3.046258
    18  H    3.454042   4.909356   4.319952   2.158557   2.383941
    19  C    2.718112   4.378794   2.779573   3.090416   4.048265
    20  H    3.200446   5.089189   3.424902   3.047677   4.020235
    21  C    3.492449   4.949600   3.090613   4.057666   4.829263
    22  H    4.336995   5.949736   3.891352   4.641608   5.344275
    23  C    2.810496   3.047677   2.873275   4.056602   4.890681
    24  H    2.898781   2.373447   3.112278   4.257139   4.989948
    25  H    3.791379   4.020235   3.914639   4.890681   5.812155
    26  C    3.290869   3.522628   2.806387   4.600955   5.249219
    27  H    4.311222   4.170980   3.838446   5.667236   6.305261
    28  H    3.001070   2.957489   2.320646   4.396364   4.840685
                   11         12         13         14         15
    11  H    0.000000
    12  C    3.860942   0.000000
    13  H    4.943340   1.084024   0.000000
    14  C    3.444619   1.353298   2.108010   0.000000
    15  H    4.353782   2.115413   2.427470   1.083482   0.000000
    16  C    2.169421   2.493317   3.475570   1.500621   2.227844
    17  H    2.421783   3.095412   4.025290   2.129143   2.660769
    18  H    2.580389   3.302222   4.183817   2.137341   2.484896
    19  C    2.652401   4.649689   5.592312   4.631746   5.549568
    20  H    2.373447   4.949600   5.949736   4.627384   5.448920
    21  C    3.524612   5.700080   6.604694   5.862186   6.839948
    22  H    3.898632   6.604694   7.556671   6.637704   7.594303
    23  C    4.257139   4.057666   4.641608   4.675626   5.571070
    24  H    4.708356   3.524612   3.898632   4.378367   5.209923
    25  H    4.989948   4.829263   5.344275   5.335799   6.127210
    26  C    4.653947   5.030917   5.635011   5.742876   6.732935
    27  H    5.742371   5.821487   6.292554   6.628113   7.575528
    28  H    4.587006   4.741859   5.307545   5.589211   6.614836
                   16         17         18         19         20
    16  C    0.000000
    17  H    1.097492   0.000000
    18  H    1.092746   1.741021   0.000000
    19  C    3.779741   3.369661   4.609919   0.000000
    20  H    3.522628   2.957489   4.170981   1.082562   0.000000
    21  C    5.030917   4.741860   5.821488   1.421866   2.167218
    22  H    5.635011   5.307546   6.292555   2.161837   2.470262
    23  C    4.600955   4.396365   5.667237   2.464385   3.448129
    24  H    4.653947   4.587007   5.742372   3.383036   4.289636
    25  H    5.249219   4.840686   6.305262   2.810334   3.698405
    26  C    5.528346   5.467922   6.529636   2.896673   3.977727
    27  H    6.529635   6.429551   7.556312   3.833201   4.909355
    28  H    5.467921   5.625185   6.429551   3.444212   4.474878
                   21         22         23         24         25
    21  C    0.000000
    22  H    1.084024   0.000000
    23  C    2.829983   3.903219   0.000000
    24  H    3.860942   4.943340   1.090452   0.000000
    25  H    3.132770   4.108642   1.095364   1.753653   0.000000
    26  C    2.493317   3.475570   1.529877   2.169421   2.148853
    27  H    3.302221   4.183817   2.158556   2.580388   2.383941
    28  H    3.095412   4.025290   2.172866   2.421783   3.046258
                   26         27         28
    26  C    0.000000
    27  H    1.092745   0.000000
    28  H    1.097493   1.741021   0.000000
 Symmetry turned off by external request.
 Stoichiometry    C12H16
 Framework group  CI[X(C12H16)]
 Deg. of freedom    39
 Full point group                 CI      NOp   2
 Rotational constants (GHZ):           1.9483341           0.6370922           0.5524173
 Leave Link  202 at Mon Aug  3 16:24:57 2020, MaxMem=  6442450944 cpu:               0.3 elap:               0.0
 (Enter /scratch/scicomp/CentOS/7.3.1611/Haswell/software/Gaussian/g16/l301.exe)
 Standard basis: def2TZVP (6D, 10F)
 Ernie: Thresh=  0.10000D-02 Tol=  0.10000D-05 Strict=F.
   528 basis functions,   740 primitive gaussians,   528 cartesian basis functions
    44 alpha electrons       44 beta electrons
       nuclear repulsion energy       691.7104163567 Hartrees.
 IExCor= 4639 DFT=T Ex+Corr=wB97XD ExCW=0 ScaHFX=  1.000000
 ScaDFX=  1.000000  1.000000  1.000000  1.000000 ScalE2=  1.000000  1.000000
 IRadAn=      5 IRanWt=     -1 IRanGd=            0 ICorTp=0 IEmpDi=121
 HFx  wShort=  0.000000 wLong=  0.200000 cFull=  0.222036 cShort=  0.000000 cLong=  0.777964
 DFx  wShort=  0.000000 wLong=  0.200000 cFull=  0.000000 cShort=  0.000000 cLong=  1.000000
 NAtoms=   28 NActive=   28 NUniq=   28 SFac= 1.00D+00 NAtFMM=   60 NAOKFM=F Big=F
 Integral buffers will be    131072 words long.
 Raffenetti 2 integral format.
 Two-electron integral symmetry is turned off.
 R6Disp:  Grimme-D2 Dispersion energy=       -0.0229094515 Hartrees.
 Nuclear repulsion after empirical dispersion term =      691.6875069052 Hartrees.
 Using the following non-standard input for PCM:
 norep pcmdoc geomview  nodis nocav g03defaults tsare=0.075
 Warning! Using old PCM defaults because the g03defaults keyword was found.
 These settings can be overridden by following keywords.
 nsfe=28
 NVESolv=36  SolvMW=84.1595   Rsolv=2.815
 eps=2.0165 RhoS=0.7781
 --- end of non-standard input.
 Reading user-defined spheres from input:
 ISph  on   Nord    Re0     Alpha      Xe            Ye            Ze
 --- end of user-defined spheres data.
 ------------------------------------------------------------------------------
 Polarizable Continuum Model (PCM)
 =================================
 Model                : PCM.
 Atomic radii         : UA0 (Simple United Atom Topological Model).
 Polarization charges : Total charges.
 Charge compensation  : None.
 Solution method      : On-the-fly selection.
 Cavity type          : SES (Solvent Excluding Surface) (Alpha=1.000).
 Cavity algorithm     : GePol (RMin=0.200 OFac=0.890).
                        User-defined sphere list used, NSphG=   28.
                        Tesserae with average area of 0.075 Ang**2.
                        Smoothing algorithm: None.
                        Polarization charges: point-like.
                        Self-potential: constant (ISelfS= 1).
                        Self-field    : global E.n sum rule (ISelfD= 3).
 Solvent              : CycloHexane, Eps=   2.016500 Eps(inf)=   2.035188
                        RSolv=   2.815000 Ang.
 ------------------------------------------------------------------------------
 GePol: Number of generator spheres                  =      28
 GePol: Total number of spheres                      =     171
 GePol: Number of exposed spheres                    =     124 ( 72.51%)
 GePol: Number of tesserae                           =    4592
 GePol: Average area of tesserae                     =       0.05 Ang**2
 GePol: Minimum area of tessera                      =   0.10D-02 Ang**2
 GePol: Maximum area of tessera                      =    0.12623 Ang**2
 GePol: Number of small tesserae                     =       0
 GePol: Fraction of small tesserae (<1% of avg)      =       0.00%
 GePol: Total count of vertices                      =   16222
 GePol: Maximum number of vertices in a tessera      =       7
 GePol: Cavity surface area                          =    218.815 Ang**2
 GePol: Cavity volume                                =    245.981 Ang**3
 Leave Link  301 at Mon Aug  3 16:24:58 2020, MaxMem=  6442450944 cpu:               8.7 elap:               0.4
 (Enter /scratch/scicomp/CentOS/7.3.1611/Haswell/software/Gaussian/g16/l302.exe)
 NPDir=0 NMtPBC=     1 NCelOv=     1 NCel=       1 NClECP=     1 NCelD=      1
         NCelK=      1 NCelE2=     1 NClLst=     1 CellRange=     0.0.
 One-electron integrals computed using PRISM.
   1 Symmetry operations used in ECPInt.
 ECPInt:  NShTT=   19306 NPrTT=   56928 LenC2=   18528 LenP2D=   42284.
 LDataN:  DoStor=T MaxTD1= 6 Len=  172
 NBasis=   528 RedAO= T EigKep=  2.54D-05  NBF=   528
 NBsUse=   528 1.00D-06 EigRej= -1.00D+00 NBFU=   528
 Precomputing XC quadrature grid using
 IXCGrd= 4 IRadAn=           5 IRanWt=          -1 IRanGd=           0 AccXCQ= 0.00D+00.
 Generated NRdTot=       0 NPtTot=           0 NUsed=           0 NTot=          32
 NSgBfM=   526   526   526   526   526 MxSgAt=    28 MxSgA2=    28.
 Leave Link  302 at Mon Aug  3 16:24:58 2020, MaxMem=  6442450944 cpu:              12.8 elap:               0.6
 (Enter /scratch/scicomp/CentOS/7.3.1611/Haswell/software/Gaussian/g16/l303.exe)
 DipDrv:  MaxL=1.
 Leave Link  303 at Mon Aug  3 16:24:58 2020, MaxMem=  6442450944 cpu:               1.5 elap:               0.1
 (Enter /scratch/scicomp/CentOS/7.3.1611/Haswell/software/Gaussian/g16/l401.exe)
 ExpMin= 9.52D-02 ExpMax= 1.36D+04 ExpMxC= 4.63D+02 IAcc=3 IRadAn=         5 AccDes= 0.00D+00
 Harris functional with IExCor= 4639 and IRadAn=       5 diagonalized for initial guess.
 HarFok:  IExCor= 4639 AccDes= 0.00D+00 IRadAn=         5 IDoV= 1 UseB2=F ITyADJ=14
 ICtDFT=  3500011 ScaDFX=  1.000000  1.000000  1.000000  1.000000
 FoFCou: FMM=F IPFlag=           0 FMFlag=      100000 FMFlg1=           0
         NFxFlg=           0 DoJE=T BraDBF=F KetDBF=T FulRan=T
         wScrn=  0.000000 ICntrl=       500 IOpCl=  0 I1Cent=   200000004 NGrid=           0
         NMat0=    1 NMatS0=      1 NMatT0=    0 NMatD0=    1 NMtDS0=    0 NMtDT0=    0
 Symmetry not used in FoFCou.
 Harris En= -444.617716314247    
 JPrj=0 DoOrth=F DoCkMO=T.
 Mixing orbitals, IMix= 1 IMixAn=  0 NRI=1 NE=   44 Coef=  7.07106781D-01  7.07106781D-01
 Mixing orbitals, IMix= 1 IMixAn=  0 NRI=1 NE=   44 Coef= -7.07106781D-01  7.07106781D-01
 Initial guess <Sx>= 0.0000 <Sy>= 0.0000 <Sz>= 0.0000 <S**2>= 1.0000 S= 0.6180
 Leave Link  401 at Mon Aug  3 16:25:01 2020, MaxMem=  6442450944 cpu:              48.9 elap:               2.1
 (Enter /scratch/scicomp/CentOS/7.3.1611/Haswell/software/Gaussian/g16/l502.exe)
 Two-electron integral symmetry not used.
 UHF open shell SCF:
 Using DIIS extrapolation, IDIIS=  1040.
 NGot=  6442450944 LenX=  6441877030 LenY=  6441597718
 Requested convergence on RMS density matrix=1.00D-08 within 128 cycles.
 Requested convergence on MAX density matrix=1.00D-06.
 Requested convergence on             energy=1.00D-06.
 No special actions if energy rises.
 Fock matrices will be formed incrementally for  20 cycles.

 Cycle   1  Pass 1  IDiag  1:
 FoFJK:  IHMeth= 1 ICntrl=       0 DoSepK=T KAlg= 0 I1Cent=           0 FoldK=F
 IRaf=         1 NMat=       1 IRICut=       1 DoRegI=T DoRafI=F ISym2E= 0 IDoP0=0 IntGTp=1.
 FoFCou: FMM=F IPFlag=           0 FMFlag=      100000 FMFlg1=           0
         NFxFlg=           0 DoJE=T BraDBF=F KetDBF=F FulRan=T
         wScrn=  0.000000 ICntrl=       500 IOpCl=  0 I1Cent=           0 NGrid=           0
         NMat0=    1 NMatS0=      1 NMatT0=    0 NMatD0=    1 NMtDS0=    0 NMtDT0=    0
 Symmetry not used in FoFCou.
 Inv3:  Mode=1 IEnd=    63259392.
 Iteration    1 A*A^-1 deviation from unit magnitude is 2.35D-14 for    129.
 Iteration    1 A*A^-1 deviation from orthogonality  is 2.24D-14 for   1714    129.
 Iteration    1 A^-1*A deviation from unit magnitude is 1.55D-14 for    129.
 Iteration    1 A^-1*A deviation from orthogonality  is 1.00D-14 for   1714    129.
 E= -466.651324055762    
 DIIS: error= 5.56D-02 at cycle   1 NSaved=   1.
 NSaved= 1 IEnMin= 1 EnMin= -466.651324055762     IErMin= 1 ErrMin= 5.56D-02
 ErrMax= 5.56D-02  0.00D+00 EMaxC= 1.00D-01 BMatC= 4.10D+00 BMatP= 4.10D+00
 IDIUse=3 WtCom= 4.44D-01 WtEn= 5.56D-01
 Coeff-Com:  0.100D+01
 Coeff-En:   0.100D+01
 Coeff:      0.100D+01
 Gap=     0.214 Goal=   None    Shift=    0.000
 Gap=     0.214 Goal=   None    Shift=    0.000
 GapD=    0.214 DampG=1.000 DampE=0.500 DampFc=0.5000 IDamp=-1.
 Damping current iteration by 5.00D-01
 RMSDP=1.41D-03 MaxDP=9.22D-02              OVMax= 1.46D-01

 Cycle   2  Pass 1  IDiag  1:
 RMSU=  6.88D-04    CP:  9.75D-01
 E= -466.728005859068     Delta-E=       -0.076681803306 Rises=F Damp=T
 DIIS: error= 2.64D-02 at cycle   2 NSaved=   2.
 NSaved= 2 IEnMin= 2 EnMin= -466.728005859068     IErMin= 2 ErrMin= 2.64D-02
 ErrMax= 2.64D-02  0.00D+00 EMaxC= 1.00D-01 BMatC= 9.22D-01 BMatP= 4.10D+00
 IDIUse=3 WtCom= 7.36D-01 WtEn= 2.64D-01
 Coeff-Com: -0.864D+00 0.186D+01
 Coeff-En:   0.000D+00 0.100D+01
 Coeff:     -0.636D+00 0.164D+01
 Gap=     0.233 Goal=   None    Shift=    0.000
 Gap=     0.233 Goal=   None    Shift=    0.000
 RMSDP=8.79D-04 MaxDP=4.81D-02 DE=-7.67D-02 OVMax= 6.35D-02

 Cycle   3  Pass 1  IDiag  1:
 RMSU=  4.74D-04    CP:  9.43D-01  2.04D+00
 E= -466.807848319084     Delta-E=       -0.079842460015 Rises=F Damp=F
 DIIS: error= 3.48D-03 at cycle   3 NSaved=   3.
 NSaved= 3 IEnMin= 3 EnMin= -466.807848319084     IErMin= 3 ErrMin= 3.48D-03
 ErrMax= 3.48D-03  0.00D+00 EMaxC= 1.00D-01 BMatC= 1.84D-02 BMatP= 9.22D-01
 IDIUse=3 WtCom= 9.65D-01 WtEn= 3.48D-02
 Coeff-Com: -0.311D+00 0.672D+00 0.640D+00
 Coeff-En:   0.000D+00 0.000D+00 0.100D+01
 Coeff:     -0.300D+00 0.648D+00 0.652D+00
 Gap=     0.238 Goal=   None    Shift=    0.000
 Gap=     0.238 Goal=   None    Shift=    0.000
 RMSDP=1.41D-04 MaxDP=7.48D-03 DE=-7.98D-02 OVMax= 3.12D-02

 Cycle   4  Pass 1  IDiag  1:
 RMSU=  1.23D-04    CP:  9.39D-01  2.12D+00  9.37D-01
 E= -466.813450471287     Delta-E=       -0.005602152204 Rises=F Damp=F
 DIIS: error= 2.35D-03 at cycle   4 NSaved=   4.
 NSaved= 4 IEnMin= 4 EnMin= -466.813450471287     IErMin= 4 ErrMin= 2.35D-03
 ErrMax= 2.35D-03  0.00D+00 EMaxC= 1.00D-01 BMatC= 7.05D-04 BMatP= 1.84D-02
 IDIUse=3 WtCom= 9.77D-01 WtEn= 2.35D-02
 Coeff-Com:  0.113D+00-0.243D+00-0.118D+00 0.125D+01
 Coeff-En:   0.000D+00 0.000D+00 0.000D+00 0.100D+01
 Coeff:      0.110D+00-0.238D+00-0.115D+00 0.124D+01
 Gap=     0.241 Goal=   None    Shift=    0.000
 Gap=     0.241 Goal=   None    Shift=    0.000
 RMSDP=1.29D-04 MaxDP=7.00D-03 DE=-5.60D-03 OVMax= 4.01D-02

 Cycle   5  Pass 1  IDiag  1:
 RMSU=  5.20D-05    CP:  9.36D-01  2.16D+00  1.10D+00  1.65D+00
 E= -466.814838362426     Delta-E=       -0.001387891138 Rises=F Damp=F
 DIIS: error= 1.13D-03 at cycle   5 NSaved=   5.
 NSaved= 5 IEnMin= 5 EnMin= -466.814838362426     IErMin= 5 ErrMin= 1.13D-03
 ErrMax= 1.13D-03  0.00D+00 EMaxC= 1.00D-01 BMatC= 1.85D-04 BMatP= 7.05D-04
 IDIUse=3 WtCom= 9.89D-01 WtEn= 1.13D-02
 Coeff-Com:  0.423D-01-0.914D-01-0.761D-01 0.127D+00 0.998D+00
 Coeff-En:   0.000D+00 0.000D+00 0.000D+00 0.000D+00 0.100D+01
 Coeff:      0.418D-01-0.904D-01-0.753D-01 0.126D+00 0.998D+00
 Gap=     0.242 Goal=   None    Shift=    0.000
 Gap=     0.242 Goal=   None    Shift=    0.000
 RMSDP=6.08D-05 MaxDP=4.27D-03 DE=-1.39D-03 OVMax= 2.03D-02

 Cycle   6  Pass 1  IDiag  1:
 RMSU=  2.09D-05    CP:  9.35D-01  2.17D+00  1.14D+00  1.99D+00  1.63D+00
 E= -466.815217615962     Delta-E=       -0.000379253536 Rises=F Damp=F
 DIIS: error= 6.65D-04 at cycle   6 NSaved=   6.
 NSaved= 6 IEnMin= 6 EnMin= -466.815217615962     IErMin= 6 ErrMin= 6.65D-04
 ErrMax= 6.65D-04  0.00D+00 EMaxC= 1.00D-01 BMatC= 9.43D-05 BMatP= 1.85D-04
 IDIUse=3 WtCom= 9.93D-01 WtEn= 6.65D-03
 Coeff-Com: -0.315D-01 0.677D-01 0.246D-01-0.427D+00 0.413D+00 0.953D+00
 Coeff-En:   0.000D+00 0.000D+00 0.000D+00 0.000D+00 0.000D+00 0.100D+01
 Coeff:     -0.313D-01 0.672D-01 0.244D-01-0.424D+00 0.410D+00 0.954D+00
 Gap=     0.241 Goal=   None    Shift=    0.000
 Gap=     0.241 Goal=   None    Shift=    0.000
 RMSDP=4.67D-05 MaxDP=2.91D-03 DE=-3.79D-04 OVMax= 1.69D-02

 Cycle   7  Pass 1  IDiag  1:
 RMSU=  1.36D-05    CP:  9.34D-01  2.18D+00  1.16D+00  2.21D+00  2.23D+00
                    CP:  1.46D+00
 E= -466.815406290593     Delta-E=       -0.000188674631 Rises=F Damp=F
 DIIS: error= 3.51D-04 at cycle   7 NSaved=   7.
 NSaved= 7 IEnMin= 7 EnMin= -466.815406290593     IErMin= 7 ErrMin= 3.51D-04
 ErrMax= 3.51D-04  0.00D+00 EMaxC= 1.00D-01 BMatC= 2.19D-05 BMatP= 9.43D-05
 IDIUse=3 WtCom= 9.96D-01 WtEn= 3.51D-03
 Coeff-Com: -0.128D-01 0.278D-01 0.222D-01-0.282D-01-0.217D+00-0.246D-01
 Coeff-Com:  0.123D+01
 Coeff-En:   0.000D+00 0.000D+00 0.000D+00 0.000D+00 0.000D+00 0.000D+00
 Coeff-En:   0.100D+01
 Coeff:     -0.127D-01 0.277D-01 0.221D-01-0.281D-01-0.217D+00-0.245D-01
 Coeff:      0.123D+01
 Gap=     0.241 Goal=   None    Shift=    0.000
 Gap=     0.241 Goal=   None    Shift=    0.000
 RMSDP=2.85D-05 MaxDP=1.69D-03 DE=-1.89D-04 OVMax= 1.02D-02

 Cycle   8  Pass 1  IDiag  1:
 RMSU=  6.54D-06    CP:  9.34D-01  2.18D+00  1.17D+00  2.33D+00  2.59D+00
                    CP:  2.03D+00  1.70D+00
 E= -466.815475180708     Delta-E=       -0.000068890116 Rises=F Damp=F
 DIIS: error= 2.35D-04 at cycle   8 NSaved=   8.
 NSaved= 8 IEnMin= 8 EnMin= -466.815475180708     IErMin= 8 ErrMin= 2.35D-04
 ErrMax= 2.35D-04  0.00D+00 EMaxC= 1.00D-01 BMatC= 9.15D-06 BMatP= 2.19D-05
 IDIUse=3 WtCom= 9.98D-01 WtEn= 2.35D-03
 Coeff-Com:  0.982D-02-0.212D-01-0.466D-02 0.170D+00-0.158D+00-0.409D+00
 Coeff-Com:  0.159D+00 0.125D+01
 Coeff-En:   0.000D+00 0.000D+00 0.000D+00 0.000D+00 0.000D+00 0.000D+00
 Coeff-En:   0.000D+00 0.100D+01
 Coeff:      0.980D-02-0.211D-01-0.465D-02 0.170D+00-0.158D+00-0.408D+00
 Coeff:      0.159D+00 0.125D+01
 Gap=     0.240 Goal=   None    Shift=    0.000
 Gap=     0.240 Goal=   None    Shift=    0.000
 RMSDP=1.92D-05 MaxDP=8.42D-04 DE=-6.89D-05 OVMax= 7.54D-03

 Cycle   9  Pass 1  IDiag  1:
 RMSU=  3.77D-06    CP:  9.34D-01  2.18D+00  1.17D+00  2.39D+00  2.80D+00
                    CP:  2.35D+00  2.39D+00  1.82D+00
 E= -466.815506721691     Delta-E=       -0.000031540983 Rises=F Damp=F
 DIIS: error= 1.59D-04 at cycle   9 NSaved=   9.
 NSaved= 9 IEnMin= 9 EnMin= -466.815506721691     IErMin= 9 ErrMin= 1.59D-04
 ErrMax= 1.59D-04  0.00D+00 EMaxC= 1.00D-01 BMatC= 3.29D-06 BMatP= 9.15D-06
 IDIUse=3 WtCom= 9.98D-01 WtEn= 1.59D-03
 Coeff-Com:  0.741D-02-0.160D-01-0.935D-02 0.568D-01 0.557D-01-0.104D+00
 Coeff-Com: -0.426D+00 0.263D+00 0.117D+01
 Coeff-En:   0.000D+00 0.000D+00 0.000D+00 0.000D+00 0.000D+00 0.000D+00
 Coeff-En:   0.000D+00 0.000D+00 0.100D+01
 Coeff:      0.740D-02-0.160D-01-0.933D-02 0.567D-01 0.556D-01-0.104D+00
 Coeff:     -0.426D+00 0.263D+00 0.117D+01
 Gap=     0.239 Goal=   None    Shift=    0.000
 Gap=     0.239 Goal=   None    Shift=    0.000
 RMSDP=1.26D-05 MaxDP=5.30D-04 DE=-3.15D-05 OVMax= 5.19D-03

 Cycle  10  Pass 1  IDiag  1:
 RMSU=  2.26D-06    CP:  9.34D-01  2.18D+00  1.17D+00  2.44D+00  2.92D+00
                    CP:  2.53D+00  2.78D+00  2.59D+00  1.80D+00
 E= -466.815519223636     Delta-E=       -0.000012501945 Rises=F Damp=F
 DIIS: error= 9.69D-05 at cycle  10 NSaved=  10.
 NSaved=10 IEnMin=10 EnMin= -466.815519223636     IErMin=10 ErrMin= 9.69D-05
 ErrMax= 9.69D-05  0.00D+00 EMaxC= 1.00D-01 BMatC= 9.09D-07 BMatP= 3.29D-06
 IDIUse=1 WtCom= 1.00D+00 WtEn= 0.00D+00
 Coeff-Com: -0.457D-02 0.989D-02 0.309D-02-0.682D-01 0.627D-01 0.165D+00
 Coeff-Com: -0.456D-01-0.555D+00-0.158D+00 0.159D+01
 Coeff:     -0.457D-02 0.989D-02 0.309D-02-0.682D-01 0.627D-01 0.165D+00
 Coeff:     -0.456D-01-0.555D+00-0.158D+00 0.159D+01
 Gap=     0.239 Goal=   None    Shift=    0.000
 Gap=     0.239 Goal=   None    Shift=    0.000
 RMSDP=1.07D-05 MaxDP=4.68D-04 DE=-1.25D-05 OVMax= 4.56D-03

 Cycle  11  Pass 1  IDiag  1:
 RMSU=  2.00D-06    CP:  9.33D-01  2.18D+00  1.18D+00  2.48D+00  3.00D+00
                    CP:  2.64D+00  3.00D+00  3.00D+00  2.81D+00  2.23D+00
 E= -466.815524311487     Delta-E=       -0.000005087851 Rises=F Damp=F
 DIIS: error= 3.11D-05 at cycle  11 NSaved=  11.
 NSaved=11 IEnMin=11 EnMin= -466.815524311487     IErMin=11 ErrMin= 3.11D-05
 ErrMax= 3.11D-05  0.00D+00 EMaxC= 1.00D-01 BMatC= 1.46D-07 BMatP= 9.09D-07
 IDIUse=1 WtCom= 1.00D+00 WtEn= 0.00D+00
 Coeff-Com: -0.919D-03 0.198D-02 0.125D-02-0.575D-02-0.704D-02 0.133D-01
 Coeff-Com:  0.508D-01-0.383D-01-0.163D+00-0.203D-01 0.117D+01
 Coeff:     -0.919D-03 0.198D-02 0.125D-02-0.575D-02-0.704D-02 0.133D-01
 Coeff:      0.508D-01-0.383D-01-0.163D+00-0.203D-01 0.117D+01
 Gap=     0.239 Goal=   None    Shift=    0.000
 Gap=     0.239 Goal=   None    Shift=    0.000
 RMSDP=3.04D-06 MaxDP=1.46D-04 DE=-5.09D-06 OVMax= 1.24D-03

 Cycle  12  Pass 1  IDiag  1:
 RMSU=  1.08D-06    CP:  9.33D-01  2.18D+00  1.18D+00  2.49D+00  3.00D+00
                    CP:  2.67D+00  3.00D+00  3.00D+00  3.00D+00  2.77D+00
                    CP:  1.81D+00
 E= -466.815524806936     Delta-E=       -0.000000495449 Rises=F Damp=F
 DIIS: error= 1.09D-05 at cycle  12 NSaved=  12.
 NSaved=12 IEnMin=12 EnMin= -466.815524806936     IErMin=12 ErrMin= 1.09D-05
 ErrMax= 1.09D-05  0.00D+00 EMaxC= 1.00D-01 BMatC= 5.15D-08 BMatP= 1.46D-07
 IDIUse=1 WtCom= 1.00D+00 WtEn= 0.00D+00
 Coeff-Com:  0.131D-02-0.284D-02-0.649D-03 0.225D-01-0.237D-01-0.536D-01
 Coeff-Com:  0.287D-01 0.181D+00 0.550D-02-0.569D+00 0.441D+00 0.970D+00
 Coeff:      0.131D-02-0.284D-02-0.649D-03 0.225D-01-0.237D-01-0.536D-01
 Coeff:      0.287D-01 0.181D+00 0.550D-02-0.569D+00 0.441D+00 0.970D+00
 Gap=     0.239 Goal=   None    Shift=    0.000
 Gap=     0.239 Goal=   None    Shift=    0.000
 RMSDP=1.43D-06 MaxDP=7.45D-05 DE=-4.95D-07 OVMax= 5.49D-04

 Cycle  13  Pass 1  IDiag  1:
 RMSU=  4.11D-07    CP:  9.33D-01  2.18D+00  1.18D+00  2.50D+00  3.00D+00
                    CP:  2.69D+00  3.00D+00  3.00D+00  3.00D+00  3.00D+00
                    CP:  2.21D+00  1.52D+00
 E= -466.815524898931     Delta-E=       -0.000000091995 Rises=F Damp=F
 DIIS: error= 3.47D-06 at cycle  13 NSaved=  13.
 NSaved=13 IEnMin=13 EnMin= -466.815524898931     IErMin=13 ErrMin= 3.47D-06
 ErrMax= 3.47D-06  0.00D+00 EMaxC= 1.00D-01 BMatC= 5.48D-09 BMatP= 5.15D-08
 IDIUse=1 WtCom= 1.00D+00 WtEn= 0.00D+00
 Coeff-Com:  0.205D-03-0.441D-03-0.200D-03 0.213D-02-0.564D-04-0.548D-02
 Coeff-Com: -0.699D-02 0.171D-01 0.287D-01-0.300D-01-0.156D+00 0.764D-01
 Coeff-Com:  0.107D+01
 Coeff:      0.205D-03-0.441D-03-0.200D-03 0.213D-02-0.564D-04-0.548D-02
 Coeff:     -0.699D-02 0.171D-01 0.287D-01-0.300D-01-0.156D+00 0.764D-01
 Coeff:      0.107D+01
 Gap=     0.239 Goal=   None    Shift=    0.000
 Gap=     0.239 Goal=   None    Shift=    0.000
 RMSDP=2.66D-07 MaxDP=1.43D-05 DE=-9.20D-08 OVMax= 8.80D-05

 Cycle  14  Pass 1  IDiag  1:
 RMSU=  1.56D-07    CP:  9.33D-01  2.18D+00  1.18D+00  2.50D+00  3.00D+00
                    CP:  2.69D+00  3.00D+00  3.00D+00  3.00D+00  3.00D+00
                    CP:  2.27D+00  1.63D+00  1.23D+00
 E= -466.815524905750     Delta-E=       -0.000000006819 Rises=F Damp=F
 DIIS: error= 1.07D-06 at cycle  14 NSaved=  14.
 NSaved=14 IEnMin=14 EnMin= -466.815524905750     IErMin=14 ErrMin= 1.07D-06
 ErrMax= 1.07D-06  0.00D+00 EMaxC= 1.00D-01 BMatC= 1.51D-09 BMatP= 5.48D-09
 IDIUse=1 WtCom= 1.00D+00 WtEn= 0.00D+00
 Coeff-Com: -0.198D-03 0.430D-03 0.670D-04-0.385D-02 0.487D-02 0.887D-02
 Coeff-Com: -0.920D-02-0.307D-01 0.996D-02 0.104D+00-0.144D+00-0.164D+00
 Coeff-Com:  0.391D+00 0.833D+00
 Coeff:     -0.198D-03 0.430D-03 0.670D-04-0.385D-02 0.487D-02 0.887D-02
 Coeff:     -0.920D-02-0.307D-01 0.996D-02 0.104D+00-0.144D+00-0.164D+00
 Coeff:      0.391D+00 0.833D+00
 Gap=     0.239 Goal=   None    Shift=    0.000
 Gap=     0.239 Goal=   None    Shift=    0.000
 RMSDP=1.15D-07 MaxDP=4.20D-06 DE=-6.82D-09 OVMax= 3.44D-05

 Cycle  15  Pass 1  IDiag  1:
 RMSU=  6.67D-08    CP:  9.33D-01  2.18D+00  1.18D+00  2.50D+00  3.00D+00
                    CP:  2.69D+00  3.00D+00  3.00D+00  3.00D+00  3.00D+00
                    CP:  2.29D+00  1.67D+00  1.27D+00  1.30D+00
 E= -466.815524906836     Delta-E=       -0.000000001086 Rises=F Damp=F
 DIIS: error= 2.95D-07 at cycle  15 NSaved=  15.
 NSaved=15 IEnMin=15 EnMin= -466.815524906836     IErMin=15 ErrMin= 2.95D-07
 ErrMax= 2.95D-07  0.00D+00 EMaxC= 1.00D-01 BMatC= 1.48D-10 BMatP= 1.51D-09
 IDIUse=1 WtCom= 1.00D+00 WtEn= 0.00D+00
 Coeff-Com: -0.734D-04 0.158D-03 0.368D-04-0.122D-02 0.123D-02 0.296D-02
 Coeff-Com: -0.149D-02-0.992D-02-0.180D-02 0.305D-01-0.137D-01-0.542D-01
 Coeff-Com: -0.661D-01 0.217D+00 0.897D+00
 Coeff:     -0.734D-04 0.158D-03 0.368D-04-0.122D-02 0.123D-02 0.296D-02
 Coeff:     -0.149D-02-0.992D-02-0.180D-02 0.305D-01-0.137D-01-0.542D-01
 Coeff:     -0.661D-01 0.217D+00 0.897D+00
 Gap=     0.239 Goal=   None    Shift=    0.000
 Gap=     0.239 Goal=   None    Shift=    0.000
 RMSDP=4.06D-08 MaxDP=1.83D-06 DE=-1.09D-09 OVMax= 1.16D-05

 Cycle  16  Pass 1  IDiag  1:
 RMSU=  1.99D-08    CP:  9.33D-01  2.18D+00  1.18D+00  2.50D+00  3.00D+00
                    CP:  2.69D+00  3.00D+00  3.00D+00  3.00D+00  3.00D+00
                    CP:  2.30D+00  1.68D+00  1.27D+00  1.42D+00  1.32D+00
 E= -466.815524906934     Delta-E=       -0.000000000098 Rises=F Damp=F
 DIIS: error= 8.18D-08 at cycle  16 NSaved=  16.
 NSaved=16 IEnMin=16 EnMin= -466.815524906934     IErMin=16 ErrMin= 8.18D-08
 ErrMax= 8.18D-08  0.00D+00 EMaxC= 1.00D-01 BMatC= 1.09D-11 BMatP= 1.48D-10
 IDIUse=1 WtCom= 1.00D+00 WtEn= 0.00D+00
 Coeff-Com:  0.733D-05-0.161D-04-0.196D-05 0.174D-03-0.232D-03-0.394D-03
 Coeff-Com:  0.609D-03 0.144D-02-0.130D-02-0.511D-02 0.112D-01 0.756D-02
 Coeff-Com: -0.436D-01-0.508D-01 0.116D+00 0.964D+00
 Coeff:      0.733D-05-0.161D-04-0.196D-05 0.174D-03-0.232D-03-0.394D-03
 Coeff:      0.609D-03 0.144D-02-0.130D-02-0.511D-02 0.112D-01 0.756D-02
 Coeff:     -0.436D-01-0.508D-01 0.116D+00 0.964D+00
 Gap=     0.239 Goal=   None    Shift=    0.000
 Gap=     0.239 Goal=   None    Shift=    0.000
 RMSDP=1.16D-08 MaxDP=5.18D-07 DE=-9.82D-11 OVMax= 1.26D-06

 Cycle  17  Pass 1  IDiag  1:
 RMSU=  7.31D-09    CP:  9.33D-01  2.18D+00  1.18D+00  2.50D+00  3.00D+00
                    CP:  2.69D+00  3.00D+00  3.00D+00  3.00D+00  3.00D+00
                    CP:  2.30D+00  1.68D+00  1.27D+00  1.43D+00  1.39D+00
                    CP:  1.34D+00
 E= -466.815524906944     Delta-E=       -0.000000000010 Rises=F Damp=F
 DIIS: error= 4.52D-08 at cycle  17 NSaved=  17.
 NSaved=17 IEnMin=17 EnMin= -466.815524906944     IErMin=17 ErrMin= 4.52D-08
 ErrMax= 4.52D-08  0.00D+00 EMaxC= 1.00D-01 BMatC= 1.58D-12 BMatP= 1.09D-11
 IDIUse=1 WtCom= 1.00D+00 WtEn= 0.00D+00
 Coeff-Com:  0.758D-05-0.163D-04-0.355D-05 0.129D-03-0.131D-03-0.342D-03
 Coeff-Com:  0.210D-03 0.108D-02 0.377D-04-0.332D-02 0.223D-02 0.610D-02
 Coeff-Com:  0.436D-02-0.299D-01-0.858D-01 0.810D-01 0.102D+01
 Coeff:      0.758D-05-0.163D-04-0.355D-05 0.129D-03-0.131D-03-0.342D-03
 Coeff:      0.210D-03 0.108D-02 0.377D-04-0.332D-02 0.223D-02 0.610D-02
 Coeff:      0.436D-02-0.299D-01-0.858D-01 0.810D-01 0.102D+01
 Gap=     0.239 Goal=   None    Shift=    0.000
 Gap=     0.239 Goal=   None    Shift=    0.000
 RMSDP=4.63D-09 MaxDP=1.80D-07 DE=-1.00D-11 OVMax= 1.02D-06

 Error on total polarization charges =  0.01173
 SCF Done:  E(UwB97XD) =  -466.815524907     A.U. after   17 cycles
            NFock= 17  Conv=0.46D-08     -V/T= 2.0059
 <Sx>= 0.0000 <Sy>= 0.0000 <Sz>= 0.0000 <S**2>= 0.6949 S= 0.4721
 <L.S>=  0.00000000000    
 KE= 4.640562673862D+02 PE=-2.464917276077D+03 EE= 8.423579768785D+02
 --------------------------------------------------------------------
 Variational PCM results
 =======================
 <psi(f)|   H    |psi(f)>                     (a.u.) =    -466.814197
 <psi(f)|H+V(f)/2|psi(f)>                     (a.u.) =    -466.815525
 (Polarized solute)-Solvent               (kcal/mol) =      -0.83
 --------------------------------------------------------------------
 Partition over spheres:
 Sphere  on Atom  Surface  Charge   GEl     GCav    GDR
    1      C1       7.44   0.011   -0.05    0.00    0.00
    2      C2       1.04   0.001   -0.00    0.00    0.00
    3      H3       7.51  -0.010   -0.03    0.00    0.00
    4      H4       3.04  -0.004   -0.01    0.00    0.00
    5      C5       4.82   0.009   -0.05    0.00    0.00
    6      C6       1.11   0.001   -0.00    0.00    0.00
    7      H7       4.90  -0.007   -0.03    0.00    0.00
    8      H8       3.55  -0.004   -0.01    0.00    0.00
    9      C9       3.06   0.002   -0.00    0.00    0.00
   10      H10      6.87  -0.006   -0.01    0.00    0.00
   11      H11      3.67  -0.003   -0.01    0.00    0.00
   12      C12      6.69   0.011   -0.06    0.00    0.00
   13      H13      7.50  -0.010   -0.03    0.00    0.00
   14      C14      7.38   0.011   -0.05    0.00    0.00
   15      H15      7.52  -0.010   -0.03    0.00    0.00
   16      C16      3.40   0.001    0.00    0.00    0.00
   17      H17      4.02  -0.004   -0.02    0.00    0.00
   18      H18      7.47  -0.008   -0.03    0.00    0.00
   19      C19      4.99   0.009   -0.05    0.00    0.00
   20      H20      5.28  -0.007   -0.03    0.00    0.00
   21      C21      6.68   0.011   -0.06    0.00    0.00
   22      H22      7.50  -0.010   -0.03    0.00    0.00
   23      C23      3.33   0.002   -0.00    0.00    0.00
   24      H24      3.85  -0.003   -0.01    0.00    0.00
   25      H25      6.89  -0.006   -0.01    0.00    0.00
   26      C26      3.24   0.001    0.00    0.00    0.00
   27      H27      7.40  -0.008   -0.03    0.00    0.00
   28      H28      4.18  -0.004   -0.02    0.00    0.00
 Added spheres:    74.46   0.020   -0.19    0.00    0.00
 --------------------------------------------------------------------
 After PCM corrections, the energy is  -466.815524907     a.u.
 --------------------------------------------------------------------
 Annihilation of the first spin contaminant:
 S**2 before annihilation     0.6949,   after     0.2341
 Leave Link  502 at Mon Aug  3 16:30:07 2020, MaxMem=  6442450944 cpu:            7290.2 elap:             306.5
 (Enter /scratch/scicomp/CentOS/7.3.1611/Haswell/software/Gaussian/g16/l601.exe)
 Copying SCF densities to generalized density rwf, IOpCl= 1 IROHF=0.

 **********************************************************************

            Population analysis using the SCF Density.

 **********************************************************************

 Alpha  occ. eigenvalues --  -10.29866 -10.29512 -10.28619 -10.28533 -10.28498
 Alpha  occ. eigenvalues --  -10.28201 -10.28183 -10.28120 -10.28116 -10.28089
 Alpha  occ. eigenvalues --  -10.27916 -10.27590  -0.94974  -0.93187  -0.85111
 Alpha  occ. eigenvalues --   -0.84479  -0.83659  -0.82445  -0.71319  -0.70293
 Alpha  occ. eigenvalues --   -0.69434  -0.67866  -0.60051  -0.59519  -0.58233
 Alpha  occ. eigenvalues --   -0.56372  -0.53379  -0.53116  -0.50899  -0.50055
 Alpha  occ. eigenvalues --   -0.49356  -0.48238  -0.47960  -0.47413  -0.46498
 Alpha  occ. eigenvalues --   -0.44726  -0.41477  -0.41060  -0.39897  -0.39693
 Alpha  occ. eigenvalues --   -0.39078  -0.37500  -0.32243  -0.24268
 Alpha virt. eigenvalues --   -0.00407   0.08824   0.10450   0.12496   0.13154
 Alpha virt. eigenvalues --    0.14207   0.14519   0.15469   0.15969   0.16306
 Alpha virt. eigenvalues --    0.16578   0.17152   0.18184   0.19582   0.20287
 Alpha virt. eigenvalues --    0.20668   0.21401   0.22640   0.23203   0.23661
 Alpha virt. eigenvalues --    0.24658   0.25133   0.26346   0.26507   0.27273
 Alpha virt. eigenvalues --    0.28538   0.28649   0.29904   0.30290   0.30533
 Alpha virt. eigenvalues --    0.31213   0.31825   0.31891   0.32835   0.33924
 Alpha virt. eigenvalues --    0.34344   0.35461   0.36014   0.36408   0.37164
 Alpha virt. eigenvalues --    0.37594   0.38736   0.40982   0.41400   0.42046
 Alpha virt. eigenvalues --    0.43364   0.43865   0.44661   0.45255   0.45565
 Alpha virt. eigenvalues --    0.46382   0.47065   0.48337   0.48449   0.48571
 Alpha virt. eigenvalues --    0.48603   0.49062   0.49234   0.49987   0.50206
 Alpha virt. eigenvalues --    0.50369   0.50909   0.51505   0.52040   0.52860
 Alpha virt. eigenvalues --    0.52910   0.54175   0.54402   0.54752   0.55785
 Alpha virt. eigenvalues --    0.56512   0.56823   0.57964   0.58611   0.58972
 Alpha virt. eigenvalues --    0.59118   0.60541   0.60807   0.63156   0.64908
 Alpha virt. eigenvalues --    0.66472   0.67340   0.67813   0.68678   0.68741
 Alpha virt. eigenvalues --    0.70712   0.71867   0.73192   0.75838   0.75950
 Alpha virt. eigenvalues --    0.77852   0.78797   0.79063   0.81477   0.81940
 Alpha virt. eigenvalues --    0.83003   0.84235   0.85734   0.87644   0.87800
 Alpha virt. eigenvalues --    0.88092   0.89403   0.93121   0.93916   0.94851
 Alpha virt. eigenvalues --    0.96010   0.97276   0.98074   0.98546   0.99501
 Alpha virt. eigenvalues --    1.01812   1.02033   1.03964   1.04424   1.05627
 Alpha virt. eigenvalues --    1.07152   1.07916   1.07928   1.09791   1.09955
 Alpha virt. eigenvalues --    1.12215   1.14028   1.15512   1.16694   1.17330
 Alpha virt. eigenvalues --    1.18302   1.18789   1.19322   1.19595   1.19758
 Alpha virt. eigenvalues --    1.20972   1.22429   1.24142   1.25728   1.25950
 Alpha virt. eigenvalues --    1.26886   1.27583   1.28014   1.28845   1.29166
 Alpha virt. eigenvalues --    1.30209   1.30544   1.33068   1.34133   1.34784
 Alpha virt. eigenvalues --    1.34953   1.35360   1.35744   1.38134   1.39118
 Alpha virt. eigenvalues --    1.39244   1.39601   1.40056   1.41561   1.42346
 Alpha virt. eigenvalues --    1.42992   1.43606   1.44127   1.44390   1.45347
 Alpha virt. eigenvalues --    1.46092   1.46741   1.47306   1.48236   1.49159
 Alpha virt. eigenvalues --    1.50647   1.53555   1.54926   1.56613   1.57605
 Alpha virt. eigenvalues --    1.59263   1.59809   1.59900   1.61894   1.63111
 Alpha virt. eigenvalues --    1.63783   1.65874   1.66220   1.67524   1.68451
 Alpha virt. eigenvalues --    1.72357   1.73632   1.75499   1.77435   1.78616
 Alpha virt. eigenvalues --    1.79021   1.80908   1.81792   1.85289   1.85409
 Alpha virt. eigenvalues --    1.87762   1.89769   1.90958   1.92908   1.94161
 Alpha virt. eigenvalues --    1.97191   1.97637   2.00902   2.02908   2.04020
 Alpha virt. eigenvalues --    2.06310   2.06690   2.08639   2.10344   2.10942
 Alpha virt. eigenvalues --    2.12617   2.15502   2.16455   2.16819   2.18125
 Alpha virt. eigenvalues --    2.18823   2.19327   2.20128   2.21261   2.23977
 Alpha virt. eigenvalues --    2.24901   2.25437   2.28308   2.30340   2.31880
 Alpha virt. eigenvalues --    2.34730   2.36645   2.37804   2.39239   2.44217
 Alpha virt. eigenvalues --    2.45323   2.47172   2.47321   2.48330   2.49783
 Alpha virt. eigenvalues --    2.50754   2.54632   2.54903   2.57017   2.57785
 Alpha virt. eigenvalues --    2.58710   2.59389   2.61465   2.62054   2.63245
 Alpha virt. eigenvalues --    2.64048   2.64530   2.67331   2.68095   2.68596
 Alpha virt. eigenvalues --    2.69094   2.71638   2.72954   2.73109   2.73992
 Alpha virt. eigenvalues --    2.74386   2.75914   2.76276   2.77646   2.77734
 Alpha virt. eigenvalues --    2.79218   2.80630   2.80673   2.82150   2.83106
 Alpha virt. eigenvalues --    2.83383   2.84207   2.84752   2.85806   2.86736
 Alpha virt. eigenvalues --    2.87100   2.88090   2.89613   2.90086   2.90841
 Alpha virt. eigenvalues --    2.92690   2.92953   2.93579   2.94794   2.96199
 Alpha virt. eigenvalues --    2.96369   2.98860   2.99878   3.01255   3.02007
 Alpha virt. eigenvalues --    3.03230   3.03659   3.05442   3.06023   3.06746
 Alpha virt. eigenvalues --    3.08201   3.08749   3.09667   3.10545   3.11320
 Alpha virt. eigenvalues --    3.12269   3.12786   3.13132   3.14579   3.14635
 Alpha virt. eigenvalues --    3.15459   3.15965   3.17851   3.19250   3.19690
 Alpha virt. eigenvalues --    3.20293   3.20873   3.21424   3.22324   3.22565
 Alpha virt. eigenvalues --    3.23236   3.24215   3.24981   3.25345   3.26316
 Alpha virt. eigenvalues --    3.26574   3.26970   3.27983   3.29570   3.30124
 Alpha virt. eigenvalues --    3.30434   3.31104   3.32086   3.32422   3.34743
 Alpha virt. eigenvalues --    3.35484   3.35852   3.36393   3.36631   3.37111
 Alpha virt. eigenvalues --    3.38693   3.39813   3.40290   3.40569   3.41847
 Alpha virt. eigenvalues --    3.42431   3.45173   3.45745   3.46390   3.46866
 Alpha virt. eigenvalues --    3.48212   3.48825   3.49528   3.50499   3.51365
 Alpha virt. eigenvalues --    3.52582   3.52855   3.53170   3.56227   3.57537
 Alpha virt. eigenvalues --    3.57626   3.58094   3.58682   3.59828   3.60099
 Alpha virt. eigenvalues --    3.61166   3.62197   3.62850   3.64468   3.66095
 Alpha virt. eigenvalues --    3.66212   3.66985   3.68954   3.69903   3.72308
 Alpha virt. eigenvalues --    3.72651   3.76288   3.78117   3.78499   3.80436
 Alpha virt. eigenvalues --    3.81090   3.82069   3.82159   3.82940   3.83970
 Alpha virt. eigenvalues --    3.85177   3.87944   3.90800   3.91864   3.92190
 Alpha virt. eigenvalues --    3.93508   3.95360   3.96300   3.99794   4.02033
 Alpha virt. eigenvalues --    4.02870   4.03539   4.06710   4.09697   4.10004
 Alpha virt. eigenvalues --    4.11247   4.11676   4.12840   4.15238   4.15397
 Alpha virt. eigenvalues --    4.17238   4.18482   4.20073   4.20720   4.21667
 Alpha virt. eigenvalues --    4.22889   4.24779   4.25360   4.27797   4.29468
 Alpha virt. eigenvalues --    4.32279   4.32990   4.34639   4.36332   4.36533
 Alpha virt. eigenvalues --    4.38381   4.44791   4.44996   4.47108   4.47468
 Alpha virt. eigenvalues --    4.49981   4.50931   4.51966   4.54696   4.54820
 Alpha virt. eigenvalues --    4.56466   4.58964   4.62009   4.64822   4.66796
 Alpha virt. eigenvalues --    4.68605   4.71371   4.74321   4.75362   4.76601
 Alpha virt. eigenvalues --    4.77055   4.79172   4.83573   4.87879   4.89307
 Alpha virt. eigenvalues --    4.92183   4.92311   4.92990   4.95590   4.96919
 Alpha virt. eigenvalues --    4.98228   5.02508   5.06652   5.09447   5.10398
 Alpha virt. eigenvalues --    5.16791   5.20705   5.21966   5.25835   5.26902
 Alpha virt. eigenvalues --    5.29696   5.36349   5.38408   5.38839   5.39687
 Alpha virt. eigenvalues --    5.41472   5.41690   5.52053   5.53244   5.60611
 Alpha virt. eigenvalues --    5.64877   5.71138   5.73796   5.83311   5.90119
 Alpha virt. eigenvalues --    7.94250   7.94992   8.02695   8.04222   8.06112
 Alpha virt. eigenvalues --    8.09807   8.10969   8.14625   8.18752   8.19442
 Alpha virt. eigenvalues --    8.34045   8.39359  34.76013  34.76432  34.80984
 Alpha virt. eigenvalues --   34.81638  34.84050  34.89108  34.98214  35.00389
 Alpha virt. eigenvalues --   35.00743  35.02570  35.17587  35.23331
  Beta  occ. eigenvalues --  -10.29866 -10.29511 -10.28619 -10.28533 -10.28497
  Beta  occ. eigenvalues --  -10.28201 -10.28184 -10.28120 -10.28117 -10.28088
  Beta  occ. eigenvalues --  -10.27916 -10.27590  -0.94974  -0.93187  -0.85111
  Beta  occ. eigenvalues --   -0.84479  -0.83659  -0.82445  -0.71319  -0.70293
  Beta  occ. eigenvalues --   -0.69433  -0.67866  -0.60051  -0.59519  -0.58233
  Beta  occ. eigenvalues --   -0.56372  -0.53379  -0.53116  -0.50899  -0.50055
  Beta  occ. eigenvalues --   -0.49356  -0.48238  -0.47960  -0.47413  -0.46498
  Beta  occ. eigenvalues --   -0.44726  -0.41477  -0.41060  -0.39897  -0.39693
  Beta  occ. eigenvalues --   -0.39077  -0.37500  -0.32243  -0.24268
  Beta virt. eigenvalues --   -0.00407   0.08824   0.10450   0.12496   0.13154
  Beta virt. eigenvalues --    0.14207   0.14519   0.15469   0.15969   0.16306
  Beta virt. eigenvalues --    0.16578   0.17152   0.18184   0.19582   0.20287
  Beta virt. eigenvalues --    0.20668   0.21401   0.22640   0.23203   0.23661
  Beta virt. eigenvalues --    0.24658   0.25133   0.26346   0.26507   0.27273
  Beta virt. eigenvalues --    0.28538   0.28649   0.29904   0.30290   0.30533
  Beta virt. eigenvalues --    0.31213   0.31825   0.31891   0.32835   0.33924
  Beta virt. eigenvalues --    0.34344   0.35461   0.36014   0.36408   0.37164
  Beta virt. eigenvalues --    0.37594   0.38736   0.40982   0.41400   0.42046
  Beta virt. eigenvalues --    0.43364   0.43865   0.44661   0.45255   0.45565
  Beta virt. eigenvalues --    0.46382   0.47065   0.48337   0.48449   0.48571
  Beta virt. eigenvalues --    0.48604   0.49062   0.49234   0.49987   0.50206
  Beta virt. eigenvalues --    0.50370   0.50909   0.51505   0.52040   0.52860
  Beta virt. eigenvalues --    0.52911   0.54175   0.54402   0.54752   0.55785
  Beta virt. eigenvalues --    0.56512   0.56823   0.57964   0.58611   0.58972
  Beta virt. eigenvalues --    0.59118   0.60541   0.60807   0.63156   0.64908
  Beta virt. eigenvalues --    0.66472   0.67340   0.67813   0.68678   0.68741
  Beta virt. eigenvalues --    0.70713   0.71867   0.73192   0.75838   0.75950
  Beta virt. eigenvalues --    0.77852   0.78797   0.79063   0.81477   0.81940
  Beta virt. eigenvalues --    0.83003   0.84235   0.85734   0.87644   0.87800
  Beta virt. eigenvalues --    0.88092   0.89403   0.93121   0.93916   0.94851
  Beta virt. eigenvalues --    0.96010   0.97276   0.98074   0.98546   0.99501
  Beta virt. eigenvalues --    1.01812   1.02033   1.03964   1.04424   1.05627
  Beta virt. eigenvalues --    1.07152   1.07916   1.07929   1.09791   1.09955
  Beta virt. eigenvalues --    1.12215   1.14028   1.15512   1.16694   1.17330
  Beta virt. eigenvalues --    1.18302   1.18789   1.19322   1.19595   1.19758
  Beta virt. eigenvalues --    1.20972   1.22429   1.24142   1.25728   1.25950
  Beta virt. eigenvalues --    1.26886   1.27583   1.28014   1.28845   1.29166
  Beta virt. eigenvalues --    1.30209   1.30544   1.33068   1.34133   1.34784
  Beta virt. eigenvalues --    1.34953   1.35360   1.35744   1.38134   1.39118
  Beta virt. eigenvalues --    1.39244   1.39601   1.40056   1.41561   1.42346
  Beta virt. eigenvalues --    1.42992   1.43605   1.44127   1.44390   1.45347
  Beta virt. eigenvalues --    1.46092   1.46741   1.47306   1.48236   1.49159
  Beta virt. eigenvalues --    1.50647   1.53555   1.54926   1.56613   1.57605
  Beta virt. eigenvalues --    1.59263   1.59809   1.59900   1.61894   1.63111
  Beta virt. eigenvalues --    1.63783   1.65874   1.66220   1.67524   1.68451
  Beta virt. eigenvalues --    1.72357   1.73632   1.75499   1.77435   1.78616
  Beta virt. eigenvalues --    1.79021   1.80908   1.81792   1.85289   1.85409
  Beta virt. eigenvalues --    1.87762   1.89769   1.90958   1.92908   1.94161
  Beta virt. eigenvalues --    1.97191   1.97637   2.00902   2.02908   2.04020
  Beta virt. eigenvalues --    2.06310   2.06690   2.08639   2.10344   2.10942
  Beta virt. eigenvalues --    2.12617   2.15502   2.16455   2.16819   2.18125
  Beta virt. eigenvalues --    2.18823   2.19327   2.20128   2.21261   2.23977
  Beta virt. eigenvalues --    2.24900   2.25437   2.28308   2.30340   2.31880
  Beta virt. eigenvalues --    2.34730   2.36645   2.37804   2.39239   2.44217
  Beta virt. eigenvalues --    2.45323   2.47173   2.47320   2.48330   2.49783
  Beta virt. eigenvalues --    2.50754   2.54632   2.54903   2.57017   2.57785
  Beta virt. eigenvalues --    2.58710   2.59389   2.61465   2.62054   2.63245
  Beta virt. eigenvalues --    2.64048   2.64530   2.67331   2.68095   2.68596
  Beta virt. eigenvalues --    2.69094   2.71638   2.72955   2.73109   2.73992
  Beta virt. eigenvalues --    2.74386   2.75914   2.76276   2.77646   2.77734
  Beta virt. eigenvalues --    2.79218   2.80630   2.80673   2.82150   2.83106
  Beta virt. eigenvalues --    2.83383   2.84207   2.84752   2.85806   2.86736
  Beta virt. eigenvalues --    2.87100   2.88090   2.89613   2.90086   2.90841
  Beta virt. eigenvalues --    2.92690   2.92953   2.93579   2.94794   2.96198
  Beta virt. eigenvalues --    2.96369   2.98860   2.99878   3.01256   3.02007
  Beta virt. eigenvalues --    3.03230   3.03659   3.05442   3.06023   3.06746
  Beta virt. eigenvalues --    3.08201   3.08749   3.09667   3.10545   3.11320
  Beta virt. eigenvalues --    3.12269   3.12786   3.13132   3.14579   3.14635
  Beta virt. eigenvalues --    3.15459   3.15965   3.17851   3.19250   3.19690
  Beta virt. eigenvalues --    3.20293   3.20873   3.21424   3.22324   3.22565
  Beta virt. eigenvalues --    3.23236   3.24215   3.24981   3.25345   3.26316
  Beta virt. eigenvalues --    3.26574   3.26970   3.27983   3.29570   3.30124
  Beta virt. eigenvalues --    3.30434   3.31104   3.32086   3.32421   3.34743
  Beta virt. eigenvalues --    3.35484   3.35852   3.36393   3.36631   3.37111
  Beta virt. eigenvalues --    3.38693   3.39813   3.40290   3.40569   3.41847
  Beta virt. eigenvalues --    3.42431   3.45173   3.45745   3.46390   3.46866
  Beta virt. eigenvalues --    3.48212   3.48825   3.49528   3.50499   3.51365
  Beta virt. eigenvalues --    3.52582   3.52855   3.53170   3.56227   3.57537
  Beta virt. eigenvalues --    3.57626   3.58094   3.58682   3.59829   3.60099
  Beta virt. eigenvalues --    3.61166   3.62197   3.62850   3.64468   3.66095
  Beta virt. eigenvalues --    3.66212   3.66985   3.68954   3.69903   3.72308
  Beta virt. eigenvalues --    3.72651   3.76288   3.78117   3.78499   3.80436
  Beta virt. eigenvalues --    3.81090   3.82069   3.82159   3.82940   3.83970
  Beta virt. eigenvalues --    3.85177   3.87944   3.90800   3.91864   3.92190
  Beta virt. eigenvalues --    3.93508   3.95360   3.96300   3.99794   4.02033
  Beta virt. eigenvalues --    4.02870   4.03539   4.06710   4.09697   4.10004
  Beta virt. eigenvalues --    4.11247   4.11676   4.12840   4.15238   4.15397
  Beta virt. eigenvalues --    4.17238   4.18482   4.20073   4.20720   4.21667
  Beta virt. eigenvalues --    4.22889   4.24779   4.25360   4.27797   4.29468
  Beta virt. eigenvalues --    4.32279   4.32990   4.34639   4.36332   4.36533
  Beta virt. eigenvalues --    4.38381   4.44791   4.44996   4.47108   4.47468
  Beta virt. eigenvalues --    4.49981   4.50931   4.51966   4.54696   4.54820
  Beta virt. eigenvalues --    4.56466   4.58964   4.62009   4.64822   4.66796
  Beta virt. eigenvalues --    4.68605   4.71371   4.74321   4.75362   4.76601
  Beta virt. eigenvalues --    4.77055   4.79172   4.83573   4.87879   4.89307
  Beta virt. eigenvalues --    4.92183   4.92311   4.92990   4.95590   4.96919
  Beta virt. eigenvalues --    4.98228   5.02508   5.06652   5.09447   5.10398
  Beta virt. eigenvalues --    5.16791   5.20705   5.21966   5.25835   5.26902
  Beta virt. eigenvalues --    5.29696   5.36349   5.38407   5.38839   5.39687
  Beta virt. eigenvalues --    5.41472   5.41690   5.52053   5.53244   5.60611
  Beta virt. eigenvalues --    5.64877   5.71138   5.73796   5.83311   5.90119
  Beta virt. eigenvalues --    7.94251   7.94992   8.02695   8.04222   8.06112
  Beta virt. eigenvalues --    8.09807   8.10969   8.14625   8.18752   8.19442
  Beta virt. eigenvalues --    8.34045   8.39359  34.76014  34.76432  34.80984
  Beta virt. eigenvalues --   34.81638  34.84050  34.89108  34.98214  35.00389
  Beta virt. eigenvalues --   35.00743  35.02570  35.17587  35.23331
          Condensed to atoms (all electrons):
               1          2          3          4          5          6
     1  C    5.207517   0.007157   0.427113  -0.003132   0.001662  -0.006818
     2  C    0.007157   5.357654  -0.001765   0.432052  -0.113174   0.182696
     3  H    0.427113  -0.001765   0.493921   0.000045  -0.000019   0.000126
     4  H   -0.003132   0.432052   0.000045   0.504737  -0.008354  -0.015288
     5  C    0.001662  -0.113174  -0.000019  -0.008354   5.278566   0.378586
     6  C   -0.006818   0.182696   0.000126  -0.015288   0.378586   5.357728
     7  H    0.000081  -0.001718   0.000003   0.000114   0.439485  -0.035815
     8  H    0.000337  -0.015277  -0.000113   0.001000  -0.044747   0.432055
     9  C    0.002536  -0.051784  -0.000005  -0.004373  -0.052699   0.253068
    10  H   -0.000024   0.006855  -0.000001  -0.000527  -0.004532  -0.047191
    11  H   -0.000211  -0.008136   0.000004   0.001082   0.011298  -0.059104
    12  C   -0.000240   0.013894  -0.000000   0.006149   0.351768  -0.066365
    13  H   -0.000001   0.000099   0.000000   0.000040  -0.033575   0.003838
    14  C    0.000094  -0.006820  -0.000000   0.000338  -0.052201   0.007157
    15  H   -0.000000   0.000126  -0.000000  -0.000113   0.005080  -0.001766
    16  C   -0.000370   0.014089   0.000000  -0.001088   0.000004  -0.075969
    17  H    0.000033   0.001743  -0.000000  -0.004718   0.008954  -0.006276
    18  H    0.000001   0.000044   0.000000   0.000434  -0.002894   0.012683
    19  C   -0.052234   0.378652   0.005074  -0.044750  -0.014098  -0.113141
    20  H    0.005068  -0.035752  -0.000149  -0.006308  -0.000336  -0.001720
    21  C    0.516868  -0.066396  -0.033117   0.007150   0.002731   0.013887
    22  H   -0.029391   0.003835  -0.006058  -0.000093   0.000059   0.000099
    23  C   -0.090797   0.253093   0.005414  -0.018046   0.009374  -0.051771
    24  H    0.013251  -0.059099  -0.000085  -0.003521   0.007058  -0.008135
    25  H    0.002392  -0.047192  -0.000077  -0.004490  -0.000201   0.006854
    26  C    0.273699  -0.075986  -0.030648   0.007812  -0.010209   0.014085
    27  H   -0.031822   0.012684  -0.004317  -0.000130   0.000286   0.000044
    28  H   -0.035140  -0.006274   0.000943  -0.000177  -0.003677   0.001742
               7          8          9         10         11         12
     1  C    0.000081   0.000337   0.002536  -0.000024  -0.000211  -0.000240
     2  C   -0.001718  -0.015277  -0.051784   0.006855  -0.008136   0.013894
     3  H    0.000003  -0.000113  -0.000005  -0.000001   0.000004  -0.000000
     4  H    0.000114   0.001000  -0.004373  -0.000527   0.001082   0.006149
     5  C    0.439485  -0.044747  -0.052699  -0.004532   0.011298   0.351768
     6  C   -0.035815   0.432055   0.253068  -0.047191  -0.059104  -0.066365
     7  H    0.483450  -0.006308   0.003837   0.000056  -0.000045  -0.038360
     8  H   -0.006308   0.504697  -0.018047  -0.004491  -0.003521   0.007149
     9  C    0.003837  -0.018047   4.981697   0.405307   0.456675   0.028784
    10  H    0.000056  -0.004491   0.405307   0.570792  -0.019748   0.001425
    11  H   -0.000045  -0.003521   0.456675  -0.019748   0.533724  -0.005003
    12  C   -0.038360   0.007149   0.028784   0.001425  -0.005003   5.023184
    13  H   -0.004224  -0.000093   0.000372  -0.000135   0.000038   0.423739
    14  C    0.005066  -0.003132  -0.090813   0.002381   0.013253   0.516816
    15  H   -0.000149   0.000045   0.005414  -0.000077  -0.000085  -0.033161
    16  C   -0.001425   0.007810   0.342169  -0.026485  -0.054136  -0.050690
    17  H    0.000005  -0.000177  -0.030010   0.006030  -0.006210  -0.010991
    18  H    0.000048  -0.000130  -0.040701  -0.008176  -0.001708   0.005140
    19  C   -0.000337  -0.008359   0.009358  -0.000200   0.007059   0.002732
    20  H    0.000002   0.000113   0.002592   0.000364  -0.002862  -0.000082
    21  C   -0.000081   0.006151  -0.002426  -0.000205   0.000080  -0.000222
    22  H   -0.000001   0.000040  -0.000073  -0.000002  -0.000025  -0.000001
    23  C    0.002589  -0.004373   0.006491  -0.000291   0.000326  -0.002427
    24  H   -0.002864   0.001082   0.000326  -0.000036  -0.000010   0.000079
    25  H    0.000364  -0.000527  -0.000291   0.000020  -0.000036  -0.000205
    26  C   -0.001348  -0.001091  -0.001667   0.000066  -0.000055   0.001340
    27  H   -0.000026   0.000434   0.000018  -0.000000  -0.000003  -0.000028
    28  H    0.002225  -0.004720   0.000594   0.000010   0.000020   0.000176
              13         14         15         16         17         18
     1  C   -0.000001   0.000094  -0.000000  -0.000370   0.000033   0.000001
     2  C    0.000099  -0.006820   0.000126   0.014089   0.001743   0.000044
     3  H    0.000000  -0.000000  -0.000000   0.000000  -0.000000   0.000000
     4  H    0.000040   0.000338  -0.000113  -0.001088  -0.004718   0.000434
     5  C   -0.033575  -0.052201   0.005080   0.000004   0.008954  -0.002894
     6  C    0.003838   0.007157  -0.001766  -0.075969  -0.006276   0.012683
     7  H   -0.004224   0.005066  -0.000149  -0.001425   0.000005   0.000048
     8  H   -0.000093  -0.003132   0.000045   0.007810  -0.000177  -0.000130
     9  C    0.000372  -0.090813   0.005414   0.342169  -0.030010  -0.040701
    10  H   -0.000135   0.002381  -0.000077  -0.026485   0.006030  -0.008176
    11  H    0.000038   0.013253  -0.000085  -0.054136  -0.006210  -0.001708
    12  C    0.423739   0.516816  -0.033161  -0.050690  -0.010991   0.005140
    13  H    0.497326  -0.029401  -0.006058   0.004720  -0.000441  -0.000135
    14  C   -0.029401   5.207560   0.427140   0.273687  -0.035145  -0.031815
    15  H   -0.006058   0.427140   0.493921  -0.030636   0.000943  -0.004317
    16  C    0.004720   0.273687  -0.030636   4.969477   0.399846   0.420519
    17  H   -0.000441  -0.035145   0.000943   0.399846   0.583105  -0.023139
    18  H   -0.000135  -0.031815  -0.004317   0.420519  -0.023139   0.546364
    19  C    0.000059   0.001662  -0.000019  -0.010212  -0.003679   0.000286
    20  H   -0.000001   0.000081   0.000003  -0.001348   0.002224  -0.000026
    21  C   -0.000001  -0.000240  -0.000000   0.001340   0.000175  -0.000028
    22  H    0.000000  -0.000001   0.000000   0.000005  -0.000002  -0.000001
    23  C   -0.000073   0.002537  -0.000005  -0.001666   0.000595   0.000018
    24  H   -0.000025  -0.000211   0.000004  -0.000056   0.000020  -0.000003
    25  H   -0.000002  -0.000024  -0.000001   0.000066   0.000010  -0.000000
    26  C    0.000005  -0.000370   0.000000   0.000367  -0.000034  -0.000001
    27  H   -0.000001   0.000001   0.000000  -0.000001   0.000001  -0.000000
    28  H   -0.000002   0.000033  -0.000000  -0.000034  -0.000010   0.000001
              19         20         21         22         23         24
     1  C   -0.052234   0.005068   0.516868  -0.029391  -0.090797   0.013251
     2  C    0.378652  -0.035752  -0.066396   0.003835   0.253093  -0.059099
     3  H    0.005074  -0.000149  -0.033117  -0.006058   0.005414  -0.000085
     4  H   -0.044750  -0.006308   0.007150  -0.000093  -0.018046  -0.003521
     5  C   -0.014098  -0.000336   0.002731   0.000059   0.009374   0.007058
     6  C   -0.113141  -0.001720   0.013887   0.000099  -0.051771  -0.008135
     7  H   -0.000337   0.000002  -0.000081  -0.000001   0.002589  -0.002864
     8  H   -0.008359   0.000113   0.006151   0.000040  -0.004373   0.001082
     9  C    0.009358   0.002592  -0.002426  -0.000073   0.006491   0.000326
    10  H   -0.000200   0.000364  -0.000205  -0.000002  -0.000291  -0.000036
    11  H    0.007059  -0.002862   0.000080  -0.000025   0.000326  -0.000010
    12  C    0.002732  -0.000082  -0.000222  -0.000001  -0.002427   0.000079
    13  H    0.000059  -0.000001  -0.000001   0.000000  -0.000073  -0.000025
    14  C    0.001662   0.000081  -0.000240  -0.000001   0.002537  -0.000211
    15  H   -0.000019   0.000003  -0.000000   0.000000  -0.000005   0.000004
    16  C   -0.010212  -0.001348   0.001340   0.000005  -0.001666  -0.000056
    17  H   -0.003679   0.002224   0.000175  -0.000002   0.000595   0.000020
    18  H    0.000286  -0.000026  -0.000028  -0.000001   0.000018  -0.000003
    19  C    5.278640   0.439480   0.351794  -0.033580  -0.052716   0.011298
    20  H    0.439480   0.483325  -0.038398  -0.004222   0.003836  -0.000045
    21  C    0.351794  -0.038398   5.023128   0.423738   0.028779  -0.005002
    22  H   -0.033580  -0.004222   0.423738   0.497328   0.000372   0.000038
    23  C   -0.052716   0.003836   0.028779   0.000372   4.981646   0.456659
    24  H    0.011298  -0.000045  -0.005002   0.000038   0.456659   0.533745
    25  H   -0.004530   0.000056   0.001421  -0.000135   0.405325  -0.019752
    26  C    0.000027  -0.001426  -0.050712   0.004721   0.342169  -0.054129
    27  H   -0.002894   0.000048   0.005144  -0.000135  -0.040691  -0.001709
    28  H    0.008950   0.000005  -0.010988  -0.000441  -0.030011  -0.006211
              25         26         27         28
     1  C    0.002392   0.273699  -0.031822  -0.035140
     2  C   -0.047192  -0.075986   0.012684  -0.006274
     3  H   -0.000077  -0.030648  -0.004317   0.000943
     4  H   -0.004490   0.007812  -0.000130  -0.000177
     5  C   -0.000201  -0.010209   0.000286  -0.003677
     6  C    0.006854   0.014085   0.000044   0.001742
     7  H    0.000364  -0.001348  -0.000026   0.002225
     8  H   -0.000527  -0.001091   0.000434  -0.004720
     9  C   -0.000291  -0.001667   0.000018   0.000594
    10  H    0.000020   0.000066  -0.000000   0.000010
    11  H   -0.000036  -0.000055  -0.000003   0.000020
    12  C   -0.000205   0.001340  -0.000028   0.000176
    13  H   -0.000002   0.000005  -0.000001  -0.000002
    14  C   -0.000024  -0.000370   0.000001   0.000033
    15  H   -0.000001   0.000000   0.000000  -0.000000
    16  C    0.000066   0.000367  -0.000001  -0.000034
    17  H    0.000010  -0.000034   0.000001  -0.000010
    18  H   -0.000000  -0.000001  -0.000000   0.000001
    19  C   -0.004530   0.000027  -0.002894   0.008950
    20  H    0.000056  -0.001426   0.000048   0.000005
    21  C    0.001421  -0.050712   0.005144  -0.010988
    22  H   -0.000135   0.004721  -0.000135  -0.000441
    23  C    0.405325   0.342169  -0.040691  -0.030011
    24  H   -0.019752  -0.054129  -0.001709  -0.006211
    25  H    0.570745  -0.026496  -0.008173   0.006029
    26  C   -0.026496   4.969501   0.420516   0.399839
    27  H   -0.008173   0.420516   0.546351  -0.023143
    28  H    0.006029   0.399839  -0.023143   0.583113
          Atomic-Atomic Spin Densities.
               1          2          3          4          5          6
     1  C    0.458718   0.000726  -0.000383   0.000205   0.000282   0.005623
     2  C    0.000726  -0.343450   0.000083   0.007911   0.083631  -0.000012
     3  H   -0.000383   0.000083  -0.016827  -0.000000  -0.000001  -0.000040
     4  H    0.000205   0.007911  -0.000000   0.016802  -0.006607  -0.014365
     5  C    0.000282   0.083631  -0.000001  -0.006607  -0.644572   0.030388
     6  C    0.005623  -0.000012  -0.000040  -0.014365   0.030388   0.343429
     7  H   -0.000001  -0.000488  -0.000000  -0.000014   0.001898   0.000092
     8  H   -0.001948   0.014365   0.000004  -0.000000  -0.002006  -0.007905
     9  C   -0.000040   0.015803   0.000001   0.001652  -0.002408  -0.019967
    10  H    0.000068  -0.001042   0.000000  -0.000102   0.001625  -0.003806
    11  H   -0.000286  -0.000539   0.000001   0.000279  -0.000331  -0.003997
    12  C   -0.000100  -0.012517   0.000000   0.003523   0.017729  -0.020505
    13  H   -0.000000  -0.000186   0.000000   0.000051   0.000965  -0.000378
    14  C   -0.000000  -0.005624   0.000000   0.001949   0.040437  -0.000724
    15  H   -0.000000   0.000040  -0.000000  -0.000004   0.000104  -0.000083
    16  C   -0.000026   0.000702  -0.000000  -0.000808  -0.002864   0.000495
    17  H    0.000019   0.004179   0.000000  -0.001479  -0.004525   0.003541
    18  H   -0.000001  -0.000385  -0.000000   0.000076   0.000551  -0.000739
    19  C   -0.040441  -0.030378  -0.000103   0.002004   0.000001  -0.083604
    20  H   -0.000262  -0.000093   0.000005   0.000280   0.000105   0.000490
    21  C    0.005760   0.020494   0.000054  -0.001722  -0.001767   0.012508
    22  H   -0.000431   0.000378   0.000168  -0.000029  -0.000016   0.000186
    23  C    0.003244   0.019982  -0.000204   0.003366  -0.005189  -0.015794
    24  H    0.000220   0.003997   0.000003  -0.000512  -0.005131   0.000538
    25  H   -0.001229   0.003805  -0.000001   0.000230   0.001451   0.001042
    26  C   -0.021940  -0.000497   0.000756  -0.000063  -0.001016  -0.000702
    27  H   -0.005654   0.000739   0.000080  -0.000050   0.000027   0.000385
    28  H   -0.013289  -0.003540   0.000041   0.000229   0.000343  -0.004179
               7          8          9         10         11         12
     1  C   -0.000001  -0.001948  -0.000040   0.000068  -0.000286  -0.000100
     2  C   -0.000488   0.014365   0.015803  -0.001042  -0.000539  -0.012517
     3  H   -0.000000   0.000004   0.000001   0.000000   0.000001   0.000000
     4  H   -0.000014  -0.000000   0.001652  -0.000102   0.000279   0.003523
     5  C    0.001898  -0.002006  -0.002408   0.001625  -0.000331   0.017729
     6  C    0.000092  -0.007905  -0.019967  -0.003806  -0.003997  -0.020505
     7  H    0.021292  -0.000280   0.000211   0.000027  -0.000008  -0.001925
     8  H   -0.000280  -0.016801  -0.003367  -0.000230   0.000512   0.001723
     9  C    0.000211  -0.003367  -0.011074   0.004143   0.000991   0.005583
    10  H    0.000027  -0.000230   0.004143   0.010731  -0.002287  -0.000822
    11  H   -0.000008   0.000512   0.000991  -0.002287   0.003781   0.000255
    12  C   -0.001925   0.001723   0.005583  -0.000822   0.000255   0.202942
    13  H   -0.000217   0.000029   0.000143  -0.000030   0.000003  -0.001060
    14  C    0.000262  -0.000205  -0.003247   0.001229  -0.000220  -0.005759
    15  H   -0.000005   0.000000   0.000204   0.000001  -0.000003  -0.000055
    16  C   -0.000062   0.000063  -0.003027  -0.001922   0.000513  -0.003880
    17  H    0.000015  -0.000228   0.000922   0.000188  -0.000210   0.001407
    18  H   -0.000000   0.000050  -0.001723   0.000167  -0.000034  -0.000916
    19  C   -0.000105   0.006603   0.005182  -0.001451   0.005132   0.001767
    20  H    0.000000   0.000014  -0.000176  -0.000007   0.000133  -0.000034
    21  C    0.000034  -0.003521  -0.000830   0.000171  -0.000551   0.000000
    22  H    0.000000  -0.000051  -0.000010   0.000002  -0.000022   0.000000
    23  C    0.000175  -0.001653  -0.000001  -0.000006   0.000199   0.000831
    24  H   -0.000134  -0.000279  -0.000199   0.000006   0.000000   0.000551
    25  H    0.000007   0.000102   0.000006  -0.000000  -0.000006  -0.000171
    26  C   -0.000098   0.000808  -0.000010  -0.000016   0.000025   0.000218
    27  H   -0.000002  -0.000076  -0.000008   0.000000  -0.000002  -0.000014
    28  H    0.000022   0.001479   0.000194  -0.000027   0.000046   0.000145
              13         14         15         16         17         18
     1  C   -0.000000  -0.000000  -0.000000  -0.000026   0.000019  -0.000001
     2  C   -0.000186  -0.005624   0.000040   0.000702   0.004179  -0.000385
     3  H    0.000000   0.000000  -0.000000  -0.000000   0.000000  -0.000000
     4  H    0.000051   0.001949  -0.000004  -0.000808  -0.001479   0.000076
     5  C    0.000965   0.040437   0.000104  -0.002864  -0.004525   0.000551
     6  C   -0.000378  -0.000724  -0.000083   0.000495   0.003541  -0.000739
     7  H   -0.000217   0.000262  -0.000005  -0.000062   0.000015  -0.000000
     8  H    0.000029  -0.000205   0.000000   0.000063  -0.000228   0.000050
     9  C    0.000143  -0.003247   0.000204  -0.003027   0.000922  -0.001723
    10  H   -0.000030   0.001229   0.000001  -0.001922   0.000188   0.000167
    11  H    0.000003  -0.000220  -0.000003   0.000513  -0.000210  -0.000034
    12  C   -0.001060  -0.005759  -0.000055  -0.003880   0.001407  -0.000916
    13  H   -0.007015   0.000431  -0.000168  -0.000067   0.000031  -0.000015
    14  C    0.000431  -0.458714   0.000384   0.021941   0.013289   0.005653
    15  H   -0.000168   0.000384   0.016827  -0.000755  -0.000041  -0.000080
    16  C   -0.000067   0.021941  -0.000755   0.025565  -0.007577  -0.003323
    17  H    0.000031   0.013289  -0.000041  -0.007577  -0.035709   0.005915
    18  H   -0.000015   0.005653  -0.000080  -0.003323   0.005915  -0.014598
    19  C    0.000016  -0.000282   0.000001   0.001017  -0.000343  -0.000027
    20  H   -0.000000   0.000001   0.000000   0.000098  -0.000022   0.000002
    21  C   -0.000000   0.000100  -0.000000  -0.000218  -0.000145   0.000014
    22  H    0.000000   0.000000  -0.000000  -0.000003  -0.000002   0.000000
    23  C    0.000011   0.000041  -0.000001   0.000011  -0.000194   0.000008
    24  H    0.000022   0.000286  -0.000001  -0.000025  -0.000046   0.000002
    25  H   -0.000002  -0.000068  -0.000000   0.000016   0.000027  -0.000000
    26  C    0.000003   0.000026   0.000000  -0.000000  -0.000016   0.000000
    27  H   -0.000000   0.000001   0.000000  -0.000000   0.000000  -0.000000
    28  H    0.000002  -0.000019  -0.000000   0.000016  -0.000000  -0.000000
              19         20         21         22         23         24
     1  C   -0.040441  -0.000262   0.005760  -0.000431   0.003244   0.000220
     2  C   -0.030378  -0.000093   0.020494   0.000378   0.019982   0.003997
     3  H   -0.000103   0.000005   0.000054   0.000168  -0.000204   0.000003
     4  H    0.002004   0.000280  -0.001722  -0.000029   0.003366  -0.000512
     5  C    0.000001   0.000105  -0.001767  -0.000016  -0.005189  -0.005131
     6  C   -0.083604   0.000490   0.012508   0.000186  -0.015794   0.000538
     7  H   -0.000105   0.000000   0.000034   0.000000   0.000175  -0.000134
     8  H    0.006603   0.000014  -0.003521  -0.000051  -0.001653  -0.000279
     9  C    0.005182  -0.000176  -0.000830  -0.000010  -0.000001  -0.000199
    10  H   -0.001451  -0.000007   0.000171   0.000002  -0.000006   0.000006
    11  H    0.005132   0.000133  -0.000551  -0.000022   0.000199   0.000000
    12  C    0.001767  -0.000034   0.000000   0.000000   0.000831   0.000551
    13  H    0.000016  -0.000000  -0.000000   0.000000   0.000011   0.000022
    14  C   -0.000282   0.000001   0.000100   0.000000   0.000041   0.000286
    15  H    0.000001   0.000000  -0.000000  -0.000000  -0.000001  -0.000001
    16  C    0.001017   0.000098  -0.000218  -0.000003   0.000011  -0.000025
    17  H   -0.000343  -0.000022  -0.000145  -0.000002  -0.000194  -0.000046
    18  H   -0.000027   0.000002   0.000014   0.000000   0.000008   0.000002
    19  C    0.644532  -0.001902  -0.017703  -0.000964   0.002399   0.000331
    20  H   -0.001902  -0.021286   0.001929   0.000217  -0.000211   0.000008
[...]
     1  C   -0.001229  -0.021940  -0.005654  -0.013289
     2  C    0.003805  -0.000497   0.000739  -0.003540
     3  H   -0.000001   0.000756   0.000080   0.000041
     4  H    0.000230  -0.000063  -0.000050   0.000229
     5  C    0.001451  -0.001016   0.000027   0.000343
     6  C    0.001042  -0.000702   0.000385  -0.004179
     7  H    0.000007  -0.000098  -0.000002   0.000022
     8  H    0.000102   0.000808  -0.000076   0.001479
     9  C    0.000006  -0.000010  -0.000008   0.000194
    10  H   -0.000000  -0.000016   0.000000  -0.000027
    11  H   -0.000006   0.000025  -0.000002   0.000046
    12  C   -0.000171   0.000218  -0.000014   0.000145
    13  H   -0.000002   0.000003  -0.000000   0.000002
    14  C   -0.000068   0.000026   0.000001  -0.000019
    15  H   -0.000000   0.000000   0.000000  -0.000000
    16  C    0.000016  -0.000000  -0.000000   0.000016
    17  H    0.000027  -0.000016   0.000000  -0.000000
    18  H   -0.000000   0.000000  -0.000000  -0.000000
    19  C   -0.001624   0.002865  -0.000551   0.004523
    20  H   -0.000027   0.000062   0.000000  -0.000015
    21  C    0.000821   0.003880   0.000915  -0.001406
    22  H    0.000030   0.000067   0.000015  -0.000031
    23  C   -0.004141   0.003029   0.001724  -0.000924
    24  H    0.002287  -0.000513   0.000034   0.000210
    25  H   -0.010731   0.001921  -0.000167  -0.000188
    26  C    0.001921  -0.025567   0.003325   0.007575
    27  H   -0.000167   0.003325   0.014597  -0.005915
    28  H   -0.000188   0.007575  -0.005915   0.035712
 Mulliken charges and spin densities:
               1          2
     1  C   -0.207630   0.388834
     2  C   -0.175301  -0.221919
     3  H    0.143711  -0.016366
     4  H    0.154156   0.012802
     5  C   -0.154196  -0.496896
     6  C   -0.175289   0.221918
     7  H    0.155378   0.020695
     8  H    0.154193  -0.012802
     9  C   -0.206351  -0.011053
    10  H    0.118817   0.006611
    11  H    0.137338   0.003376
    12  C   -0.174599   0.188917
    13  H    0.143932  -0.007433
    14  C   -0.207634  -0.388831
    15  H    0.143713   0.016366
    16  C   -0.179983   0.025879
    17  H    0.117149  -0.021001
    18  H    0.127534  -0.009402
    19  C   -0.154322   0.496892
    20  H    0.155478  -0.020692
    21  C   -0.174568  -0.188919
    22  H    0.143927   0.007433
    23  C   -0.206354   0.011052
    24  H    0.137332  -0.003376
    25  H    0.118850  -0.006611
    26  C   -0.179973  -0.025879
    27  H    0.127546   0.009402
    28  H    0.117148   0.021002
 Sum of Mulliken charges =  -0.00000  -0.00000
 Mulliken charges and spin densities with hydrogens summed into heavy atoms:
               1          2
     1  C   -0.063918   0.372468
     2  C   -0.021145  -0.209117
     5  C    0.001182  -0.476201
     6  C   -0.021097   0.209116
     9  C    0.049803  -0.001066
    12  C   -0.030667   0.181484
    14  C   -0.063921  -0.372465
    16  C    0.064700  -0.004525
    19  C    0.001156   0.476200
    21  C   -0.030642  -0.181486
    23  C    0.049828   0.001065
    26  C    0.064720   0.004525
 Electronic spatial extent (au):  <R**2>=           2192.1973
 Charge=             -0.0000 electrons
 Dipole moment (field-independent basis, Debye):
    X=              0.0005    Y=             -0.0002    Z=              0.0000  Tot=              0.0006
 Quadrupole moment (field-independent basis, Debye-Ang):
   XX=            -72.4580   YY=            -70.6962   ZZ=            -76.5945
   XY=             -2.9625   XZ=             -3.1342   YZ=             -0.7108
 Traceless Quadrupole moment (field-independent basis, Debye-Ang):
   XX=              0.7916   YY=              2.5534   ZZ=             -3.3449
   XY=             -2.9625   XZ=             -3.1342   YZ=             -0.7108
 Octapole moment (field-independent basis, Debye-Ang**2):
  XXX=              0.0097  YYY=             -0.0021  ZZZ=             -0.0002  XYY=              0.0002
  XXY=             -0.0011  XXZ=             -0.0002  XZZ=             -0.0003  YZZ=              0.0002
  YYZ=             -0.0009  XYZ=              0.0010
 Hexadecapole moment (field-independent basis, Debye-Ang**3):
 XXXX=          -2029.5240 YYYY=           -633.7280 ZZZZ=           -315.1195 XXXY=            -95.7770
 XXXZ=           -116.0619 YYYX=            -59.1126 YYYZ=             -0.0852 ZZZX=            -65.5384
 ZZZY=             -8.0100 XXYY=           -442.4878 XXZZ=           -417.4022 YYZZ=           -173.2388
 XXYZ=            -20.0617 YYXZ=            -25.2215 ZZXY=            -41.2594
 N-N= 6.916875069052D+02 E-N=-2.464917274271D+03  KE= 4.640562673862D+02
                          Isotropic Fermi Contact Couplings
        Atom                 a.u.       MegaHertz       Gauss      10(-4) cm-1
     1  C(13)              0.02953      16.59714       5.92227       5.53621
     2  C(13)             -0.07573     -42.56993     -15.19001     -14.19980
     3  H(1)              -0.00585     -13.06940      -4.66349      -4.35948
     4  H(1)               0.00705      15.75675       5.62240       5.25589
     5  C(13)             -0.03894     -21.88716      -7.80988      -7.30077
     6  C(13)              0.07573      42.56919      15.18974      14.19955
     7  H(1)               0.00749      16.74688       5.97570       5.58616
     8  H(1)              -0.00705     -15.75665      -5.62237      -5.25585
     9  C(13)             -0.00911      -5.12152      -1.82748      -1.70835
    10  H(1)               0.00360       8.05514       2.87427       2.68691
    11  H(1)               0.00084       1.87851       0.67030       0.62660
    12  C(13)              0.03316      18.63656       6.64999       6.21649
    13  H(1)              -0.00243      -5.43132      -1.93803      -1.81169
    14  C(13)             -0.02953     -16.59688      -5.92218      -5.53612
    15  H(1)               0.00585      13.06943       4.66350       4.35949
    16  C(13)              0.01382       7.77077       2.77280       2.59205
    17  H(1)              -0.01021     -22.81891      -8.14235      -7.61157
    18  H(1)              -0.00449     -10.03050      -3.57913      -3.34581
    19  C(13)              0.03894      21.88610       7.80950       7.30042
    20  H(1)              -0.00749     -16.74678      -5.97567      -5.58613
    21  C(13)             -0.03316     -18.63644      -6.64994      -6.21645
    22  H(1)               0.00243       5.43131       1.93803       1.81169
    23  C(13)              0.00911       5.12131       1.82741       1.70828
    24  H(1)              -0.00084      -1.87858      -0.67032      -0.62663
    25  H(1)              -0.00360      -8.05515      -2.87428      -2.68691
    26  C(13)             -0.01382      -7.77079      -2.77281      -2.59206
    27  H(1)               0.00449      10.03054       3.57915       3.34583
    28  H(1)               0.01021      22.81917       8.14245       7.61165
 --------------------------------------------------------
       Center         ----  Spin Dipole Couplings  ----
                      3XX-RR        3YY-RR        3ZZ-RR
 --------------------------------------------------------
     1   Atom       -0.080579     -0.228293      0.308872
     2   Atom        0.048614      0.127054     -0.175668
     3   Atom        0.022162     -0.028900      0.006737
     4   Atom       -0.006776      0.014888     -0.008112
     5   Atom        0.172432      0.296875     -0.469308
     6   Atom       -0.048616     -0.127056      0.175672
     7   Atom        0.011260     -0.010463     -0.000797
     8   Atom        0.006777     -0.014889      0.008112
     9   Atom       -0.000244     -0.004896      0.005140
    10   Atom        0.003169     -0.002268     -0.000901
    11   Atom        0.003570     -0.003465     -0.000105
    12   Atom       -0.055400     -0.086614      0.142014
    13   Atom       -0.006874      0.003623      0.003251
    14   Atom        0.080578      0.228291     -0.308869
    15   Atom       -0.022162      0.028899     -0.006737
    16   Atom        0.003294     -0.002724     -0.000570
    17   Atom        0.004985     -0.005990      0.001006
    18   Atom        0.004429     -0.006953      0.002523
    19   Atom       -0.172428     -0.296868      0.469295
    20   Atom       -0.011259      0.010463      0.000797
    21   Atom        0.055400      0.086614     -0.142014
    22   Atom        0.006874     -0.003623     -0.003251
    23   Atom        0.000243      0.004897     -0.005140
    24   Atom       -0.003570      0.003465      0.000105
    25   Atom       -0.003169      0.002268      0.000901
    26   Atom       -0.003294      0.002724      0.000570
    27   Atom       -0.004429      0.006953     -0.002523
    28   Atom       -0.004985      0.005990     -0.001006
 --------------------------------------------------------
                        XY            XZ            YZ
 --------------------------------------------------------
     1   Atom       -0.003515      0.271202     -0.010494
     2   Atom       -0.027737     -0.158225     -0.069900
     3   Atom        0.005437     -0.011357     -0.003373
     4   Atom        0.001834      0.005634     -0.006856
     5   Atom        0.007557     -0.298904     -0.014660
     6   Atom        0.027737      0.158227      0.069902
     7   Atom        0.034340     -0.006210     -0.011720
     8   Atom       -0.001835     -0.005634      0.006856
     9   Atom        0.008283      0.007561     -0.003262
    10   Atom       -0.000632      0.003379      0.003148
    11   Atom       -0.003511      0.005881      0.000566
    12   Atom        0.008319      0.107678     -0.015345
    13   Atom        0.006314      0.006126     -0.002713
    14   Atom        0.003515     -0.271200      0.010493
    15   Atom       -0.005437      0.011357      0.003373
    16   Atom       -0.001600     -0.007025      0.000644
    17   Atom       -0.002646     -0.001689     -0.002944
    18   Atom        0.001258      0.000222      0.001856
    19   Atom       -0.007554      0.298897      0.014667
    20   Atom       -0.034339      0.006210      0.011719
    21   Atom       -0.008319     -0.107678      0.015344
    22   Atom       -0.006314     -0.006126      0.002713
    23   Atom       -0.008283     -0.007561      0.003262
    24   Atom        0.003511     -0.005881     -0.000566
    25   Atom        0.000632     -0.003379     -0.003148
    26   Atom        0.001600      0.007025     -0.000644
    27   Atom       -0.001258     -0.000222     -0.001856
    28   Atom        0.002646      0.001689      0.002944
 --------------------------------------------------------


 ---------------------------------------------------------------------------------
              Anisotropic Spin Dipole Couplings in Principal Axis System
 ---------------------------------------------------------------------------------

       Atom             a.u.   MegaHertz   Gauss  10(-4) cm-1        Axes

              Baa    -0.2288   -30.699   -10.954   -10.240 -0.1535  0.9834  0.0966
     1 C(13)  Bbb    -0.2194   -29.444   -10.506    -9.821  0.8764  0.1806 -0.4463
              Bcc     0.4482    60.143    21.461    20.062  0.4564 -0.0162  0.8896
 
              Baa    -0.2715   -36.435   -13.001   -12.153  0.4483  0.1846  0.8746
     2 C(13)  Bbb     0.1267    17.000     6.066     5.671  0.8316 -0.4449 -0.3323
              Bcc     0.1448    19.435     6.935     6.483  0.3278  0.8764 -0.3529
 
              Baa    -0.0296   -15.799    -5.637    -5.270 -0.0903  0.9939  0.0640
     3 H(1)   Bbb     0.0007     0.388     0.139     0.129  0.4709 -0.0140  0.8821
              Bcc     0.0289    15.411     5.499     5.140  0.8775  0.1098 -0.4667
 
              Baa    -0.0145    -7.749    -2.765    -2.585 -0.6072  0.2161  0.7646
     4 H(1)   Bbb    -0.0023    -1.204    -0.430    -0.402  0.7945  0.1503  0.5884
              Bcc     0.0168     8.953     3.195     2.986  0.0122  0.9647 -0.2629
 
              Baa    -0.5871   -78.782   -28.111   -26.279  0.3661  0.0123  0.9305
     5 C(13)  Bbb     0.2807    37.663    13.439    12.563  0.7440 -0.6045 -0.2847
              Bcc     0.3064    41.119    14.672    13.716  0.5590  0.7965 -0.2305
 
              Baa    -0.1448   -19.435    -6.935    -6.483  0.3278  0.8764 -0.3529
     6 C(13)  Bbb    -0.1267   -17.000    -6.066    -5.671  0.8316 -0.4449 -0.3323
              Bcc     0.2715    36.436    13.001    12.154  0.4483  0.1846  0.8746
 
              Baa    -0.0366   -19.531    -6.969    -6.515 -0.5601  0.8112  0.1683
     7 H(1)   Bbb    -0.0033    -1.784    -0.636    -0.595  0.3286  0.0310  0.9440
              Bcc     0.0399    21.315     7.606     7.110  0.7605  0.5840 -0.2839
 
              Baa    -0.0168    -8.953    -3.195    -2.987  0.0122  0.9647 -0.2629
     8 H(1)   Bbb     0.0023     1.204     0.430     0.402  0.7945  0.1503  0.5884
              Bcc     0.0145     7.749     2.765     2.585 -0.6072  0.2161  0.7646
 
              Baa    -0.0140    -1.876    -0.669    -0.626 -0.6196  0.6956  0.3637
     9 C(13)  Bbb     0.0031     0.417     0.149     0.139  0.4503  0.6945 -0.5612
              Bcc     0.0109     1.459     0.521     0.487  0.6429  0.1839  0.7435
 
              Baa    -0.0056    -3.012    -1.075    -1.005  0.3046  0.6792 -0.6677
    10 H(1)   Bbb     0.0004     0.219     0.078     0.073 -0.4680  0.7173  0.5162
              Bcc     0.0052     2.794     0.997     0.932  0.8296  0.1552  0.5364
 
              Baa    -0.0067    -3.580    -1.277    -1.194  0.5290  0.6645 -0.5279
    11 H(1)   Bbb    -0.0017    -0.922    -0.329    -0.308 -0.2490  0.7162  0.6520
              Bcc     0.0084     4.503     1.607     1.502  0.8113 -0.2134  0.5443
 
              Baa    -0.1108   -14.864    -5.304    -4.958  0.7844 -0.5017 -0.3646
    12 C(13)  Bbb    -0.0790   -10.605    -3.784    -3.537  0.4734  0.8641 -0.1706
              Bcc     0.1898    25.469     9.088     8.495  0.4007 -0.0388  0.9154
 
              Baa    -0.0127    -6.753    -2.410    -2.253  0.8356 -0.3887 -0.3881
    13 H(1)   Bbb     0.0060     3.222     1.150     1.075  0.2406 -0.3761  0.8948
              Bcc     0.0066     3.531     1.260     1.178  0.4938  0.8411  0.2208
 
              Baa    -0.4482   -60.143   -21.460   -20.061  0.4564 -0.0162  0.8896
    14 C(13)  Bbb     0.2194    29.443    10.506     9.821  0.8764  0.1806 -0.4463
              Bcc     0.2288    30.699    10.954    10.240 -0.1535  0.9834  0.0966
 
              Baa    -0.0289   -15.411    -5.499    -5.140  0.8775  0.1098 -0.4668
    15 H(1)   Bbb    -0.0007    -0.388    -0.138    -0.129  0.4709 -0.0140  0.8821
              Bcc     0.0296    15.799     5.637     5.270 -0.0903  0.9939  0.0640
 
              Baa    -0.0060    -0.804    -0.287    -0.268  0.6128  0.1469  0.7765
    16 C(13)  Bbb    -0.0029    -0.388    -0.139    -0.130  0.0226  0.9789 -0.2030
              Bcc     0.0089     1.192     0.426     0.398  0.7899 -0.1420 -0.5965
 
              Baa    -0.0078    -4.163    -1.485    -1.389  0.2338  0.9077  0.3483
    17 H(1)   Bbb     0.0020     1.049     0.374     0.350  0.1649 -0.3901  0.9059
              Bcc     0.0058     3.114     1.111     1.039  0.9582 -0.1544 -0.2409
 
              Baa    -0.0074    -3.961    -1.413    -1.321 -0.1004  0.9785 -0.1804
    18 H(1)   Bbb     0.0028     1.473     0.526     0.491 -0.2418  0.1518  0.9584
              Bcc     0.0047     2.488     0.888     0.830  0.9651  0.1399  0.2213
 
              Baa    -0.3064   -41.118   -14.672   -13.715  0.5590  0.7965 -0.2305
    19 C(13)  Bbb    -0.2807   -37.663   -13.439   -12.563  0.7440 -0.6045 -0.2847
              Bcc     0.5871    78.780    28.111    26.278  0.3661  0.0123  0.9305
 
              Baa    -0.0399   -21.315    -7.606    -7.110  0.7605  0.5840 -0.2839
    20 H(1)   Bbb     0.0033     1.784     0.636     0.595  0.3286  0.0310  0.9440
              Bcc     0.0366    19.531     6.969     6.515 -0.5601  0.8111  0.1683
 
              Baa    -0.1898   -25.469    -9.088    -8.495  0.4007 -0.0388  0.9154
    21 C(13)  Bbb     0.0790    10.605     3.784     3.537  0.4734  0.8641 -0.1706
              Bcc     0.1108    14.864     5.304     4.958  0.7844 -0.5017 -0.3646
 
              Baa    -0.0066    -3.531    -1.260    -1.178  0.4938  0.8411  0.2207
    22 H(1)   Bbb    -0.0060    -3.222    -1.150    -1.075  0.2406 -0.3761  0.8948
              Bcc     0.0127     6.753     2.410     2.253  0.8356 -0.3887 -0.3881
 
              Baa    -0.0109    -1.459    -0.521    -0.487  0.6429  0.1839  0.7435
    23 C(13)  Bbb    -0.0031    -0.417    -0.149    -0.139  0.4503  0.6945 -0.5612
              Bcc     0.0140     1.876     0.669     0.626 -0.6196  0.6956  0.3637
 
              Baa    -0.0084    -4.503    -1.607    -1.502  0.8113 -0.2134  0.5443
    24 H(1)   Bbb     0.0017     0.922     0.329     0.308 -0.2490  0.7162  0.6520
              Bcc     0.0067     3.580     1.278     1.194  0.5290  0.6645 -0.5279
 
              Baa    -0.0052    -2.794    -0.997    -0.932  0.8296  0.1552  0.5364
    25 H(1)   Bbb    -0.0004    -0.219    -0.078    -0.073 -0.4680  0.7173  0.5162
              Bcc     0.0056     3.012     1.075     1.005  0.3046  0.6792 -0.6677
 
              Baa    -0.0089    -1.192    -0.426    -0.398  0.7899 -0.1420 -0.5965
    26 C(13)  Bbb     0.0029     0.388     0.139     0.130  0.0226  0.9789 -0.2031
              Bcc     0.0060     0.804     0.287     0.268  0.6128  0.1470  0.7765
 
              Baa    -0.0047    -2.488    -0.888    -0.830  0.9651  0.1399  0.2213
    27 H(1)   Bbb    -0.0028    -1.473    -0.526    -0.491 -0.2418  0.1518  0.9584
              Bcc     0.0074     3.961     1.413     1.321 -0.1004  0.9785 -0.1804
 
              Baa    -0.0058    -3.114    -1.111    -1.039  0.9582 -0.1544 -0.2409
    28 H(1)   Bbb    -0.0020    -1.049    -0.374    -0.350  0.1649 -0.3901  0.9059
              Bcc     0.0078     4.163     1.485     1.389  0.2338  0.9077  0.3483
 

 ---------------------------------------------------------------------------------

 No NMR shielding tensors so no spin-rotation constants.
 Leave Link  601 at Mon Aug  3 16:30:08 2020, MaxMem=  6442450944 cpu:               8.1 elap:               0.4
 (Enter /scratch/scicomp/CentOS/7.3.1611/Haswell/software/Gaussian/g16/l9999.exe)
 1\1\GINC-ATLAS-205\SP\UwB97XD\def2TZVP\C12H16\BOCHEN\03-Aug-2020\0\\#p
  uwb97xd guess=mix def2tzvp # scrf=(iefpcm,solvent=Cyclohexane,read) n
 osym 6d 10f\\endo-2 xp-pcm for eta=3\\0,1\C,0,-3.118978,-0.431679,0.24
 7428\C,0,-0.498946,-0.160979,-0.842137\H,0,-4.084002,-0.548806,0.72590
 8\H,0,0.353974,-0.115713,-1.511513\C,0,1.10474,1.419096,0.680914\C,0,0
 .498946,0.160979,0.842137\H,0,0.54438,2.322265,0.886395\H,0,-0.353974,
 0.115713,1.511513\C,0,1.462618,-0.999815,0.987483\H,0,1.898715,-0.9373
 76,1.99035\H,0,0.929624,-1.949747,0.936184\C,0,2.406372,1.522548,0.118
 104\H,0,2.824451,2.509227,-0.045547\C,0,3.118978,0.431679,-0.247428\H,
 0,4.084002,0.548806,-0.725908\C,0,2.592276,-0.958579,-0.043389\H,0,2.2
 48579,-1.357021,-1.006512\H,0,3.401237,-1.622533,0.271\C,0,-1.10474,-1
 .419096,-0.680914\H,0,-0.54438,-2.322265,-0.886395\C,0,-2.406372,-1.52
 2548,-0.118104\H,0,-2.824451,-2.509227,0.045547\C,0,-1.462618,0.999815
 ,-0.987483\H,0,-0.929624,1.949747,-0.936184\H,0,-1.898715,0.937376,-1.
 99035\C,0,-2.592276,0.958579,0.043389\H,0,-3.401236,1.622533,-0.271\H,
 0,-2.248578,1.357021,1.006512\\Version=ES64L-G16RevB.01\HF=-466.815524
 9\S2=0.694896\S2-1=0.\S2A=0.23411\RMSD=4.629e-09\Dipole=0.0002051,-0.0
 000853,0.0000173\Quadrupole=0.5885339,1.8983535,-2.4868874,-2.2025605,
 -2.3302135,-0.5284661\PG=CI [X(C12H16)]\\@


 ROSE IS A RED
 TY COBB IS BLUE
 'CAUSE PETE JUST HIT
 NO. 4592.
 Job cpu time:       0 days  2 hours  3 minutes 41.9 seconds.
 Elapsed time:       0 days  0 hours  5 minutes 12.5 seconds.
 File lengths (MBytes):  RWF=    622 Int=      0 D2E=      0 Chk=     23 Scr=      1
 Normal termination of Gaussian 16 at Mon Aug  3 16:30:10 2020.
