 Entering Gaussian System, Link 0=g16
 Input=meso-TS_31_2_xp-Ger.com
 Output=meso-TS_31_2_xp-Ger.log
 Initial command:
 /scratch/scicomp/CentOS/7.3.1611/Haswell/software/Gaussian/g16/l1.exe "/scratch/bochen/cyclohexadiene-dimerization/wb97xd-def2tzvp/xp-pcm/meso/Gau-315200.inp" -scrdir="/scratch/bochen/cyclohexadiene-dimerization/wb97xd-def2tzvp/xp-pcm/meso/"
 Entering Link 1 = /scratch/scicomp/CentOS/7.3.1611/Haswell/software/Gaussian/g16/l1.exe PID=    315201.
  
 Copyright (c) 1988-2017, Gaussian, Inc.  All Rights Reserved.
  
 This is part of the Gaussian(R) 16 program.  It is based on
 the Gaussian(R) 09 system (copyright 2009, Gaussian, Inc.),
 the Gaussian(R) 03 system (copyright 2003, Gaussian, Inc.),
 the Gaussian(R) 98 system (copyright 1998, Gaussian, Inc.),
 the Gaussian(R) 94 system (copyright 1995, Gaussian, Inc.),
 the Gaussian 92(TM) system (copyright 1992, Gaussian, Inc.),
 the Gaussian 90(TM) system (copyright 1990, Gaussian, Inc.),
 the Gaussian 88(TM) system (copyright 1988, Gaussian, Inc.),
 the Gaussian 86(TM) system (copyright 1986, Carnegie Mellon
 University), and the Gaussian 82(TM) system (copyright 1983,
 Carnegie Mellon University). Gaussian is a federally registered
 trademark of Gaussian, Inc.
  
 This software contains proprietary and confidential information,
 including trade secrets, belonging to Gaussian, Inc.
  
 This software is provided under written license and may be
 used, copied, transmitted, or stored only in accord with that
 written license.
  
 The following legend is applicable only to US Government
 contracts under FAR:
  
                    RESTRICTED RIGHTS LEGEND
  
 Use, reproduction and disclosure by the US Government is
 subject to restrictions as set forth in subparagraphs (a)
 and (c) of the Commercial Computer Software - Restricted
 Rights clause in FAR 52.227-19.
  
 Gaussian, Inc.
 340 Quinnipiac St., Bldg. 40, Wallingford CT 06492
  
  
 ---------------------------------------------------------------
 Warning -- This program may not be used in any manner that
 competes with the business of Gaussian, Inc. or will provide
 assistance to any competitor of Gaussian, Inc.  The licensee
 of this program is prohibited from giving any competitor of
 Gaussian, Inc. access to this program.  By using this program,
 the user acknowledges that Gaussian, Inc. is engaged in the
 business of creating and licensing software in the field of
 computational chemistry and represents and warrants to the
 licensee that it is not a competitor of Gaussian, Inc. and that
 it will not use this program in any manner prohibited above.
 ---------------------------------------------------------------
  

 Cite this work as:
 Gaussian 16, Revision B.01,
 M. J. Frisch, G. W. Trucks, H. B. Schlegel, G. E. Scuseria, 
 M. A. Robb, J. R. Cheeseman, G. Scalmani, V. Barone, 
 G. A. Petersson, H. Nakatsuji, X. Li, M. Caricato, A. V. Marenich, 
 J. Bloino, B. G. Janesko, R. Gomperts, B. Mennucci, H. P. Hratchian, 
 J. V. Ortiz, A. F. Izmaylov, J. L. Sonnenberg, D. Williams-Young, 
 F. Ding, F. Lipparini, F. Egidi, J. Goings, B. Peng, A. Petrone, 
 T. Henderson, D. Ranasinghe, V. G. Zakrzewski, J. Gao, N. Rega, 
 G. Zheng, W. Liang, M. Hada, M. Ehara, K. Toyota, R. Fukuda, 
 J. Hasegawa, M. Ishida, T. Nakajima, Y. Honda, O. Kitao, H. Nakai, 
 T. Vreven, K. Throssell, J. A. Montgomery, Jr., J. E. Peralta, 
 F. Ogliaro, M. J. Bearpark, J. J. Heyd, E. N. Brothers, K. N. Kudin, 
 V. N. Staroverov, T. A. Keith, R. Kobayashi, J. Normand, 
 K. Raghavachari, A. P. Rendell, J. C. Burant, S. S. Iyengar, 
 J. Tomasi, M. Cossi, J. M. Millam, M. Klene, C. Adamo, R. Cammi, 
 J. W. Ochterski, R. L. Martin, K. Morokuma, O. Farkas, 
 J. B. Foresman, and D. J. Fox, Gaussian, Inc., Wallingford CT, 2016.
 
 ******************************************
 Gaussian 16:  ES64L-G16RevB.01 20-Dec-2017
                 4-Aug-2020 
 ******************************************
 %chk=meso-TS_31_2_xp-12.chk
 %nproc=24
 Will use up to   24 processors via shared memory.
 %mem=48GB
 ----------------------------------------------------------------------
 #p uwb97xd guess=mix def2tzvp # scrf=(iefpcm,solvent=Cyclohexane,read)
  nosym 6d 10f
 ----------------------------------------------------------------------
 1/38=1,40=2,172=1/1;
 2/12=2,15=1,17=6,18=5,40=1/2;
 3/5=44,7=101,8=22,11=2,25=1,30=1,70=2203,72=17,74=-58,116=2/1,2,3;
 4/13=-1/1;
 5/5=2,38=5,53=17/2;
 6/7=2,8=2,9=2,10=2,28=1/1;
 99/5=1,9=1/99;
 Leave Link    1 at Tue Aug  4 06:37:54 2020, MaxMem=  6442450944 cpu:               2.7 elap:               0.1
 (Enter /scratch/scicomp/CentOS/7.3.1611/Haswell/software/Gaussian/g16/l101.exe)
 -----------------------
 endo-2 xp-pcm for eta=3
 -----------------------
 Symbolic Z-matrix:
 Charge =  0 Multiplicity = 1
 6                    -3.12449  -0.43946   0.25089 
 6                    -0.64731  -0.23043  -1.1056 
 1                    -4.08497  -0.54475   0.74203 
 1                     0.32319  -0.13763  -1.57448 
 6                     1.11596   1.41576   0.7262 
 6                     0.64731   0.23043   1.1056 
 1                     0.52451   2.31377   0.85425 
 1                    -0.32319   0.13763   1.57448 
 6                     1.50301  -1.00104   1.03866 
 1                     1.98522  -1.09544   2.01983 
 1                     0.887    -1.89127   0.92148 
 6                     2.43384   1.5219    0.10595 
 1                     2.84011   2.50902  -0.08001 
 6                     3.12449   0.43946  -0.25089 
 1                     4.08497   0.54475  -0.74203 
 6                     2.58721  -0.95031  -0.04345 
 1                     2.20416  -1.32618  -1.00025 
 1                     3.40004  -1.62668   0.22885 
 6                    -1.11596  -1.41576  -0.7262 
 1                    -0.52451  -2.31377  -0.85425 
 6                    -2.43384  -1.5219   -0.10595 
 1                    -2.84011  -2.50902   0.08001 
 6                    -1.50301   1.00104  -1.03866 
 1                    -0.887     1.89127  -0.92148 
 1                    -1.98522   1.09544  -2.01983 
 6                    -2.58721   0.95031   0.04345 
 1                    -3.40004   1.62668  -0.22885 
 1                    -2.20416   1.32618   1.00025 
 
 ITRead=  0  0  0  0  0  0  0  0  0  0  0  0  0  0  0  0  0  0  0  0
 ITRead=  0  0  0  0  0  0  0  0
 MicOpt= -1 -1 -1 -1 -1 -1 -1 -1 -1 -1 -1 -1 -1 -1 -1 -1 -1 -1 -1 -1
 MicOpt= -1 -1 -1 -1 -1 -1 -1 -1
 NAtoms=     28 NQM=       28 NQMF=       0 NMMI=      0 NMMIF=      0
                NMic=       0 NMicF=      0.
                    Isotopes and Nuclear Properties:
 (Nuclear quadrupole moments (NQMom) in fm**2, nuclear magnetic moments (NMagM)
  in nuclear magnetons)

  Atom         1           2           3           4           5           6           7           8           9          10
 IAtWgt=          12          12           1           1          12          12           1           1          12           1
 AtmWgt=  12.0000000  12.0000000   1.0078250   1.0078250  12.0000000  12.0000000   1.0078250   1.0078250  12.0000000   1.0078250
 NucSpn=           0           0           1           1           0           0           1           1           0           1
 AtZEff=  -0.0000000  -0.0000000  -0.0000000  -0.0000000  -0.0000000  -0.0000000  -0.0000000  -0.0000000  -0.0000000  -0.0000000
 NQMom=    0.0000000   0.0000000   0.0000000   0.0000000   0.0000000   0.0000000   0.0000000   0.0000000   0.0000000   0.0000000
 NMagM=    0.0000000   0.0000000   2.7928460   2.7928460   0.0000000   0.0000000   2.7928460   2.7928460   0.0000000   2.7928460
 AtZNuc=   6.0000000   6.0000000   1.0000000   1.0000000   6.0000000   6.0000000   1.0000000   1.0000000   6.0000000   1.0000000

  Atom        11          12          13          14          15          16          17          18          19          20
 IAtWgt=           1          12           1          12           1          12           1           1          12           1
 AtmWgt=   1.0078250  12.0000000   1.0078250  12.0000000   1.0078250  12.0000000   1.0078250   1.0078250  12.0000000   1.0078250
 NucSpn=           1           0           1           0           1           0           1           1           0           1
 AtZEff=  -0.0000000  -0.0000000  -0.0000000  -0.0000000  -0.0000000  -0.0000000  -0.0000000  -0.0000000  -0.0000000  -0.0000000
 NQMom=    0.0000000   0.0000000   0.0000000   0.0000000   0.0000000   0.0000000   0.0000000   0.0000000   0.0000000   0.0000000
 NMagM=    2.7928460   0.0000000   2.7928460   0.0000000   2.7928460   0.0000000   2.7928460   2.7928460   0.0000000   2.7928460
 AtZNuc=   1.0000000   6.0000000   1.0000000   6.0000000   1.0000000   6.0000000   1.0000000   1.0000000   6.0000000   1.0000000

  Atom        21          22          23          24          25          26          27          28
 IAtWgt=          12           1          12           1           1          12           1           1
 AtmWgt=  12.0000000   1.0078250  12.0000000   1.0078250   1.0078250  12.0000000   1.0078250   1.0078250
 NucSpn=           0           1           0           1           1           0           1           1
 AtZEff=  -0.0000000  -0.0000000  -0.0000000  -0.0000000  -0.0000000  -0.0000000  -0.0000000  -0.0000000
 NQMom=    0.0000000   0.0000000   0.0000000   0.0000000   0.0000000   0.0000000   0.0000000   0.0000000
 NMagM=    0.0000000   2.7928460   0.0000000   2.7928460   2.7928460   0.0000000   2.7928460   2.7928460
 AtZNuc=   6.0000000   1.0000000   6.0000000   1.0000000   1.0000000   6.0000000   1.0000000   1.0000000
 Leave Link  101 at Tue Aug  4 06:37:54 2020, MaxMem=  6442450944 cpu:               2.4 elap:               0.1
 (Enter /scratch/scicomp/CentOS/7.3.1611/Haswell/software/Gaussian/g16/l202.exe)
                          Input orientation:                          
 ---------------------------------------------------------------------
 Center     Atomic      Atomic             Coordinates (Angstroms)
 Number     Number       Type             X           Y           Z
 ---------------------------------------------------------------------
      1          6           0       -3.124486   -0.439464    0.250893
      2          6           0       -0.647306   -0.230427   -1.105597
      3          1           0       -4.084971   -0.544748    0.742034
      4          1           0        0.323194   -0.137629   -1.574480
      5          6           0        1.115957    1.415764    0.726197
      6          6           0        0.647306    0.230427    1.105597
      7          1           0        0.524506    2.313770    0.854246
      8          1           0       -0.323194    0.137629    1.574480
      9          6           0        1.503007   -1.001045    1.038660
     10          1           0        1.985221   -1.095436    2.019831
     11          1           0        0.887003   -1.891265    0.921479
     12          6           0        2.433841    1.521901    0.105946
     13          1           0        2.840105    2.509020   -0.080013
     14          6           0        3.124486    0.439464   -0.250893
     15          1           0        4.084971    0.544748   -0.742034
     16          6           0        2.587213   -0.950307   -0.043454
     17          1           0        2.204157   -1.326175   -1.000254
     18          1           0        3.400038   -1.626681    0.228849
     19          6           0       -1.115957   -1.415764   -0.726197
     20          1           0       -0.524506   -2.313770   -0.854246
     21          6           0       -2.433841   -1.521901   -0.105946
     22          1           0       -2.840105   -2.509020    0.080013
     23          6           0       -1.503007    1.001045   -1.038660
     24          1           0       -0.887003    1.891265   -0.921479
     25          1           0       -1.985221    1.095436   -2.019831
     26          6           0       -2.587213    0.950307    0.043454
     27          1           0       -3.400038    1.626680   -0.228849
     28          1           0       -2.204158    1.326175    1.000254
 ---------------------------------------------------------------------
                    Distance matrix (angstroms):
                    1          2          3          4          5
     1  C    0.000000
     2  C    2.831993   0.000000
     3  H    1.083898   3.915364   0.000000
     4  H    3.912747   1.081819   4.996389   0.000000
     5  C    4.652864   3.028945   5.558193   2.886974   0.000000
     6  C    3.925008   2.603418   4.809108   2.724578   1.329888
     7  H    4.610800   3.418635   5.425034   3.456674   1.082878
     8  H    3.151532   2.724578   3.912745   3.226381   2.103418
     9  C    4.727541   3.132976   5.614418   2.994319   2.467470
    10  H    5.446884   4.176929   6.227620   4.074162   2.955543
    11  H    4.318502   3.036696   5.154205   3.102085   3.320692
    12  C    5.896012   3.745925   6.868082   3.167444   1.460409
    13  H    6.661787   4.551750   7.613011   3.946267   2.194965
    14  C    6.330399   3.925008   7.343762   3.151532   2.437633
    15  H    7.343762   4.809108   8.374808   3.912745   3.424823
    16  C    5.742047   3.479725   6.730491   2.851363   2.890545
    17  H    5.544913   3.056567   6.572619   2.297912   3.418046
    18  H    6.631695   4.484558   7.580191   3.864743   3.836776
    19  C    2.437633   1.329888   3.424823   2.103418   3.886958
    20  H    3.390317   2.102041   4.284211   2.443956   4.370165
    21  C    1.332664   2.420519   2.097648   3.416730   4.682243
    22  H    2.095981   3.377281   2.417918   4.285709   5.609983
    23  C    2.523333   1.501076   3.496696   2.217812   3.185229
    24  H    3.437017   2.143112   4.350682   2.450999   2.636814
    25  H    2.968170   2.093741   3.837584   2.654725   4.154586
    26  C    1.504379   2.545131   2.228561   3.503111   3.794240
    27  H    2.138933   3.434395   2.475247   4.334278   4.620694
    28  H    2.127446   3.046540   2.665425   3.893518   3.332611
                    6          7          8          9         10
     6  C    0.000000
     7  H    2.102041   0.000000
     8  H    1.081819   2.443956   0.000000
     9  C    1.501076   3.461137   2.217812   0.000000
    10  H    2.093741   3.887797   2.654725   1.097332   0.000000
    11  H    2.143112   4.221166   2.450999   1.088891   1.745223
    12  C    2.420519   2.198311   3.416730   2.846342   3.273327
    13  H    3.377281   2.504588   4.285709   3.919160   4.258201
    14  C    2.831993   3.390317   3.912747   2.523333   2.968170
    15  H    3.915364   4.284211   4.996389   3.496696   3.837584
    16  C    2.545131   3.964193   3.503111   1.532660   2.154206
    17  H    3.046540   4.416967   3.893518   2.180480   3.036789
    18  H    3.434395   4.918024   4.334278   2.155444   2.343405
    19  C    3.028945   4.370165   2.886974   3.185229   4.154586
    20  H    3.418635   5.043163   3.456674   3.068737   4.005420
    21  C    3.745925   4.938234   3.167444   4.132818   4.922287
    22  H    4.551750   5.931218   3.946267   4.696341   5.389331
    23  C    3.132976   3.068737   2.994319   4.166502   5.090907
    24  H    3.036696   2.307394   3.102085   4.233173   5.081472
    25  H    4.176929   4.005420   4.074162   5.090907   6.073154
    26  C    3.479725   3.492737   2.851363   4.639839   5.385005
    27  H    4.484558   4.128830   3.864743   5.705381   6.439526
    28  H    3.056568   2.905558   2.297913   4.377271   4.945163
                   11         12         13         14         15
    11  H    0.000000
    12  C    3.835036   0.000000
    13  H    4.917327   1.083529   0.000000
    14  C    3.437017   1.332664   2.095981   0.000000
    15  H    4.350682   2.097648   2.417918   1.083898   0.000000
    16  C    2.169611   2.481462   3.468751   1.504379   2.228561
    17  H    2.397348   3.063979   3.994996   2.127446   2.665425
    18  H    2.620131   3.295787   4.184847   2.138933   2.475248
    19  C    2.636814   4.682243   5.609983   4.652864   5.558193
    20  H    2.307394   4.938234   5.931218   4.610800   5.425034
    21  C    3.495717   5.744907   6.638035   5.896012   6.868082
    22  H    3.870532   6.638035   7.580971   6.661787   7.613011
    23  C    4.233173   4.132818   4.696341   4.727541   5.614418
    24  H    4.566303   3.495717   3.870532   4.318502   5.154205
    25  H    5.081472   4.922287   5.389331   5.446884   6.227620
    26  C    4.573362   5.053871   5.648063   5.742047   6.730491
    27  H    5.663737   5.844417   6.303972   6.631695   7.580191
    28  H    4.462443   4.727487   5.292512   5.544914   6.572620
                   16         17         18         19         20
    16  C    0.000000
    17  H    1.097030   0.000000
    18  H    1.091932   1.741014   0.000000
    19  C    3.794240   3.332610   4.620694   0.000000
    20  H    3.492737   2.905557   4.128829   1.082878   0.000000
    21  C    5.053871   4.727486   5.844417   1.460409   2.198311
    22  H    5.648063   5.292512   6.303972   2.194965   2.504588
    23  C    4.639839   4.377270   5.705381   2.467470   3.461137
    24  H    4.573362   4.462443   5.663737   3.320692   4.221166
    25  H    5.385005   4.945162   6.439526   2.955543   3.887797
    26  C    5.513127   5.406378   6.520921   2.890545   3.964193
    27  H    6.520921   6.381334   7.552144   3.836776   4.918023
    28  H    5.406379   5.519985   6.381335   3.418047   4.416967
                   21         22         23         24         25
    21  C    0.000000
    22  H    1.083529   0.000000
    23  C    2.846342   3.919160   0.000000
    24  H    3.835036   4.917327   1.088891   0.000000
    25  H    3.273327   4.258201   1.097332   1.745223   0.000000
    26  C    2.481462   3.468751   1.532660   2.169611   2.154206
    27  H    3.295786   4.184846   2.155444   2.620131   2.343404
    28  H    3.063979   3.994996   2.180480   2.397349   3.036789
                   26         27         28
    26  C    0.000000
    27  H    1.091931   0.000000
    28  H    1.097030   1.741013   0.000000
 Symmetry turned off by external request.
 Stoichiometry    C12H16
 Framework group  CI[X(C12H16)]
 Deg. of freedom    39
 Full point group                 CI      NOp   2
 Rotational constants (GHZ):           1.8437848           0.6150436           0.5446288
 Leave Link  202 at Tue Aug  4 06:37:54 2020, MaxMem=  6442450944 cpu:               0.3 elap:               0.0
 (Enter /scratch/scicomp/CentOS/7.3.1611/Haswell/software/Gaussian/g16/l301.exe)
 Standard basis: def2TZVP (6D, 10F)
 Ernie: Thresh=  0.10000D-02 Tol=  0.10000D-05 Strict=F.
   528 basis functions,   740 primitive gaussians,   528 cartesian basis functions
    44 alpha electrons       44 beta electrons
       nuclear repulsion energy       683.6431228402 Hartrees.
 IExCor= 4639 DFT=T Ex+Corr=wB97XD ExCW=0 ScaHFX=  1.000000
 ScaDFX=  1.000000  1.000000  1.000000  1.000000 ScalE2=  1.000000  1.000000
 IRadAn=      5 IRanWt=     -1 IRanGd=            0 ICorTp=0 IEmpDi=121
 HFx  wShort=  0.000000 wLong=  0.200000 cFull=  0.222036 cShort=  0.000000 cLong=  0.777964
 DFx  wShort=  0.000000 wLong=  0.200000 cFull=  0.000000 cShort=  0.000000 cLong=  1.000000
 NAtoms=   28 NActive=   28 NUniq=   28 SFac= 1.00D+00 NAtFMM=   60 NAOKFM=F Big=F
 Integral buffers will be    131072 words long.
 Raffenetti 2 integral format.
 Two-electron integral symmetry is turned off.
 R6Disp:  Grimme-D2 Dispersion energy=       -0.0228535623 Hartrees.
 Nuclear repulsion after empirical dispersion term =      683.6202692779 Hartrees.
 Using the following non-standard input for PCM:
 qrep pcmdoc geomview  nodis nocav g03defaults tsare=0.075
 Warning! Using old PCM defaults because the g03defaults keyword was found.
 These settings can be overridden by following keywords.
 nsfe=28
 NVESolv=36  SolvMW=84.1595   Rsolv=2.815
 eps=2.0165 RhoS=0.778099999999998
 --- end of non-standard input.
 Reading user-defined spheres from input:
 ISph  on   Nord    Re0     Alpha      Xe            Ye            Ze
 --- end of user-defined spheres data.
 ------------------------------------------------------------------------------
 Polarizable Continuum Model (PCM)
 =================================
 Model                : PCM.
 Atomic radii         : UA0 (Simple United Atom Topological Model).
 Polarization charges : Total charges.
 Charge compensation  : None.
 Solution method      : On-the-fly selection.
 Cavity type          : SES (Solvent Excluding Surface) (Alpha=1.000).
 Cavity algorithm     : GePol (RMin=0.200 OFac=0.890).
                        User-defined sphere list used, NSphG=   28.
                        Tesserae with average area of 0.075 Ang**2.
                        Smoothing algorithm: None.
                        Polarization charges: point-like.
                        Self-potential: constant (ISelfS= 1).
                        Self-field    : global E.n sum rule (ISelfD= 3).
 Solvent              : CycloHexane, Eps=   2.016500 Eps(inf)=   2.035188
                        RSolv=   2.815000 Ang.
 ------------------------------------------------------------------------------
 GePol: Number of generator spheres                  =      28
 GePol: Total number of spheres                      =     186
 GePol: Number of exposed spheres                    =     133 ( 71.51%)
 GePol: Number of tesserae                           =    4665
 GePol: Average area of tesserae                     =       0.05 Ang**2
 GePol: Minimum area of tessera                      =   0.10D-02 Ang**2
 GePol: Maximum area of tessera                      =    0.12533 Ang**2
 GePol: Number of small tesserae                     =       0
 GePol: Fraction of small tesserae (<1% of avg)      =       0.00%
 GePol: Total count of vertices                      =   16527
 GePol: Maximum number of vertices in a tessera      =       7
 GePol: Cavity surface area                          =    219.706 Ang**2
 GePol: Cavity volume                                =    248.461 Ang**3
 Leave Link  301 at Tue Aug  4 06:37:55 2020, MaxMem=  6442450944 cpu:               7.8 elap:               0.4
 (Enter /scratch/scicomp/CentOS/7.3.1611/Haswell/software/Gaussian/g16/l302.exe)
 NPDir=0 NMtPBC=     1 NCelOv=     1 NCel=       1 NClECP=     1 NCelD=      1
         NCelK=      1 NCelE2=     1 NClLst=     1 CellRange=     0.0.
 One-electron integrals computed using PRISM.
   1 Symmetry operations used in ECPInt.
 ECPInt:  NShTT=   19306 NPrTT=   56928 LenC2=   18504 LenP2D=   42098.
 LDataN:  DoStor=T MaxTD1= 6 Len=  172
 NBasis=   528 RedAO= T EigKep=  1.78D-05  NBF=   528
 NBsUse=   528 1.00D-06 EigRej= -1.00D+00 NBFU=   528
 Precomputing XC quadrature grid using
 IXCGrd= 4 IRadAn=           5 IRanWt=          -1 IRanGd=           0 AccXCQ= 0.00D+00.
 Generated NRdTot=       0 NPtTot=           0 NUsed=           0 NTot=          32
 NSgBfM=   526   526   526   526   526 MxSgAt=    28 MxSgA2=    28.
 Leave Link  302 at Tue Aug  4 06:37:55 2020, MaxMem=  6442450944 cpu:              12.9 elap:               0.6
 (Enter /scratch/scicomp/CentOS/7.3.1611/Haswell/software/Gaussian/g16/l303.exe)
 DipDrv:  MaxL=1.
 Leave Link  303 at Tue Aug  4 06:37:56 2020, MaxMem=  6442450944 cpu:               1.5 elap:               0.1
 (Enter /scratch/scicomp/CentOS/7.3.1611/Haswell/software/Gaussian/g16/l401.exe)
 ExpMin= 9.52D-02 ExpMax= 1.36D+04 ExpMxC= 4.63D+02 IAcc=3 IRadAn=         5 AccDes= 0.00D+00
 Harris functional with IExCor= 4639 and IRadAn=       5 diagonalized for initial guess.
 HarFok:  IExCor= 4639 AccDes= 0.00D+00 IRadAn=         5 IDoV= 1 UseB2=F ITyADJ=14
 ICtDFT=  3500011 ScaDFX=  1.000000  1.000000  1.000000  1.000000
 FoFCou: FMM=F IPFlag=           0 FMFlag=      100000 FMFlg1=           0
         NFxFlg=           0 DoJE=T BraDBF=F KetDBF=T FulRan=T
         wScrn=  0.000000 ICntrl=       500 IOpCl=  0 I1Cent=   200000004 NGrid=           0
         NMat0=    1 NMatS0=      1 NMatT0=    0 NMatD0=    1 NMtDS0=    0 NMtDT0=    0
 Symmetry not used in FoFCou.
 Harris En= -444.645800545004    
 JPrj=0 DoOrth=F DoCkMO=T.
 Mixing orbitals, IMix= 1 IMixAn=  0 NRI=1 NE=   44 Coef=  7.07106781D-01  7.07106781D-01
 Mixing orbitals, IMix= 1 IMixAn=  0 NRI=1 NE=   44 Coef= -7.07106781D-01  7.07106781D-01
 Initial guess <Sx>= 0.0000 <Sy>= 0.0000 <Sz>= 0.0000 <S**2>= 1.0000 S= 0.6180
 Leave Link  401 at Tue Aug  4 06:37:58 2020, MaxMem=  6442450944 cpu:              49.0 elap:               2.1
 (Enter /scratch/scicomp/CentOS/7.3.1611/Haswell/software/Gaussian/g16/l502.exe)
 Two-electron integral symmetry not used.
 UHF open shell SCF:
 Using DIIS extrapolation, IDIIS=  1040.
 NGot=  6442450944 LenX=  6441877030 LenY=  6441597718
 Requested convergence on RMS density matrix=1.00D-08 within 128 cycles.
 Requested convergence on MAX density matrix=1.00D-06.
 Requested convergence on             energy=1.00D-06.
 No special actions if energy rises.
 Fock matrices will be formed incrementally for  20 cycles.

 Cycle   1  Pass 1  IDiag  1:
 FoFJK:  IHMeth= 1 ICntrl=       0 DoSepK=T KAlg= 0 I1Cent=           0 FoldK=F
 IRaf=         1 NMat=       1 IRICut=       1 DoRegI=T DoRafI=F ISym2E= 0 IDoP0=0 IntGTp=1.
 FoFCou: FMM=F IPFlag=           0 FMFlag=      100000 FMFlg1=           0
         NFxFlg=           0 DoJE=T BraDBF=F KetDBF=F FulRan=T
         wScrn=  0.000000 ICntrl=       500 IOpCl=  0 I1Cent=           0 NGrid=           0
         NMat0=    1 NMatS0=      1 NMatT0=    0 NMatD0=    1 NMtDS0=    0 NMtDT0=    0
 Symmetry not used in FoFCou.
 Inv3:  Mode=1 IEnd=    65286675.
 Iteration    1 A*A^-1 deviation from unit magnitude is 3.22D-14 for    299.
 Iteration    1 A*A^-1 deviation from orthogonality  is 1.25D-14 for    124    116.
 Iteration    1 A^-1*A deviation from unit magnitude is 6.88D-15 for    116.
 Iteration    1 A^-1*A deviation from orthogonality  is 3.54D-14 for    299    116.
 E= -466.576123624855    
 DIIS: error= 5.62D-02 at cycle   1 NSaved=   1.
 NSaved= 1 IEnMin= 1 EnMin= -466.576123624855     IErMin= 1 ErrMin= 5.62D-02
 ErrMax= 5.62D-02  0.00D+00 EMaxC= 1.00D-01 BMatC= 4.11D+00 BMatP= 4.11D+00
 IDIUse=3 WtCom= 4.38D-01 WtEn= 5.62D-01
 Coeff-Com:  0.100D+01
 Coeff-En:   0.100D+01
 Coeff:      0.100D+01
 Gap=     0.186 Goal=   None    Shift=    0.000
 Gap=     0.186 Goal=   None    Shift=    0.000
 GapD=    0.186 DampG=1.000 DampE=0.500 DampFc=0.5000 IDamp=-1.
 Damping current iteration by 5.00D-01
 RMSDP=1.69D-03 MaxDP=9.24D-02              OVMax= 3.21D-01

 Cycle   2  Pass 1  IDiag  1:
 RMSU=  8.19D-04    CP:  9.67D-01
 E= -466.681223278987     Delta-E=       -0.105099654132 Rises=F Damp=T
 DIIS: error= 2.67D-02 at cycle   2 NSaved=   2.
 NSaved= 2 IEnMin= 2 EnMin= -466.681223278987     IErMin= 2 ErrMin= 2.67D-02
 ErrMax= 2.67D-02  0.00D+00 EMaxC= 1.00D-01 BMatC= 9.34D-01 BMatP= 4.11D+00
 IDIUse=3 WtCom= 7.33D-01 WtEn= 2.67D-01
 Coeff-Com: -0.868D+00 0.187D+01
 Coeff-En:   0.000D+00 0.100D+01
 Coeff:     -0.637D+00 0.164D+01
 Gap=     0.267 Goal=   None    Shift=    0.000
 Gap=     0.267 Goal=   None    Shift=    0.000
 RMSDP=1.20D-03 MaxDP=4.92D-02 DE=-1.05D-01 OVMax= 1.36D-01

 Cycle   3  Pass 1  IDiag  1:
 RMSU=  6.13D-04    CP:  9.19D-01  2.21D+00
 E= -466.816888359565     Delta-E=       -0.135665080578 Rises=F Damp=F
 DIIS: error= 7.66D-03 at cycle   3 NSaved=   3.
 NSaved= 3 IEnMin= 3 EnMin= -466.816888359565     IErMin= 3 ErrMin= 7.66D-03
 ErrMax= 7.66D-03  0.00D+00 EMaxC= 1.00D-01 BMatC= 2.30D-02 BMatP= 9.34D-01
 IDIUse=3 WtCom= 9.23D-01 WtEn= 7.66D-02
 Coeff-Com: -0.313D+00 0.671D+00 0.641D+00
 Coeff-En:   0.000D+00 0.000D+00 0.100D+01
 Coeff:     -0.289D+00 0.620D+00 0.669D+00
 Gap=     0.287 Goal=   None    Shift=    0.000
 Gap=     0.287 Goal=   None    Shift=    0.000
 RMSDP=2.40D-04 MaxDP=1.28D-02 DE=-1.36D-01 OVMax= 6.73D-02

 Cycle   4  Pass 1  IDiag  1:
 RMSU=  2.22D-04    CP:  9.11D-01  2.30D+00  1.00D+00
 E= -466.827776191929     Delta-E=       -0.010887832364 Rises=F Damp=F
 DIIS: error= 5.18D-03 at cycle   4 NSaved=   4.
 NSaved= 4 IEnMin= 4 EnMin= -466.827776191929     IErMin= 4 ErrMin= 5.18D-03
 ErrMax= 5.18D-03  0.00D+00 EMaxC= 1.00D-01 BMatC= 2.17D-03 BMatP= 2.30D-02
 IDIUse=3 WtCom= 9.48D-01 WtEn= 5.18D-02
 Coeff-Com:  0.128D+00-0.274D+00-0.572D-01 0.120D+01
 Coeff-En:   0.000D+00 0.000D+00 0.000D+00 0.100D+01
 Coeff:      0.121D+00-0.260D+00-0.542D-01 0.119D+01
 Gap=     0.298 Goal=   None    Shift=    0.000
 Gap=     0.298 Goal=   None    Shift=    0.000
 RMSDP=2.35D-04 MaxDP=1.07D-02 DE=-1.09D-02 OVMax= 8.05D-02

 Cycle   5  Pass 1  IDiag  1:
 RMSU=  9.59D-05    CP:  9.04D-01  2.35D+00  1.24D+00  1.65D+00
 E= -466.832789177692     Delta-E=       -0.005012985763 Rises=F Damp=F
 DIIS: error= 2.62D-03 at cycle   5 NSaved=   5.
 NSaved= 5 IEnMin= 5 EnMin= -466.832789177692     IErMin= 5 ErrMin= 2.62D-03
 ErrMax= 2.62D-03  0.00D+00 EMaxC= 1.00D-01 BMatC= 1.04D-03 BMatP= 2.17D-03
 IDIUse=3 WtCom= 9.74D-01 WtEn= 2.62D-02
 Coeff-Com:  0.819D-01-0.176D+00-0.954D-01 0.462D+00 0.727D+00
 Coeff-En:   0.000D+00 0.000D+00 0.000D+00 0.000D+00 0.100D+01
 Coeff:      0.797D-01-0.171D+00-0.929D-01 0.450D+00 0.734D+00
 Gap=     0.301 Goal=   None    Shift=    0.000
 Gap=     0.301 Goal=   None    Shift=    0.000
 RMSDP=9.40D-05 MaxDP=4.45D-03 DE=-5.01D-03 OVMax= 3.28D-02

 Cycle   6  Pass 1  IDiag  1:
 RMSU=  3.49D-05    CP:  9.01D-01  2.36D+00  1.29D+00  1.97D+00  1.39D+00
 E= -466.834363607189     Delta-E=       -0.001574429497 Rises=F Damp=F
 DIIS: error= 1.87D-03 at cycle   6 NSaved=   6.
 NSaved= 6 IEnMin= 6 EnMin= -466.834363607189     IErMin= 6 ErrMin= 1.87D-03
 ErrMax= 1.87D-03  0.00D+00 EMaxC= 1.00D-01 BMatC= 5.57D-04 BMatP= 1.04D-03
 IDIUse=3 WtCom= 9.81D-01 WtEn= 1.87D-02
 Coeff-Com: -0.703D-01 0.151D+00 0.578D-01-0.509D+00-0.295D-02 0.137D+01
 Coeff-En:   0.000D+00 0.000D+00 0.000D+00 0.000D+00 0.000D+00 0.100D+01
 Coeff:     -0.690D-01 0.148D+00 0.568D-01-0.500D+00-0.289D-02 0.137D+01
 Gap=     0.297 Goal=   None    Shift=    0.000
 Gap=     0.297 Goal=   None    Shift=    0.000
 RMSDP=1.12D-04 MaxDP=4.14D-03 DE=-1.57D-03 OVMax= 4.05D-02

 Cycle   7  Pass 1  IDiag  1:
 RMSU=  3.27D-05    CP:  8.99D-01  2.35D+00  1.33D+00  2.28D+00  2.07D+00
                    CP:  2.09D+00
 E= -466.836066507536     Delta-E=       -0.001702900347 Rises=F Damp=F
 DIIS: error= 1.26D-03 at cycle   7 NSaved=   7.
 NSaved= 7 IEnMin= 7 EnMin= -466.836066507536     IErMin= 7 ErrMin= 1.26D-03
 ErrMax= 1.26D-03  0.00D+00 EMaxC= 1.00D-01 BMatC= 3.09D-04 BMatP= 5.57D-04
 IDIUse=3 WtCom= 9.87D-01 WtEn= 1.26D-02
 Coeff-Com: -0.227D-01 0.493D-01 0.457D-01 0.384D-01-0.570D+00-0.847D+00
 Coeff-Com:  0.231D+01
 Coeff-En:   0.000D+00 0.000D+00 0.000D+00 0.000D+00 0.000D+00 0.000D+00
 Coeff-En:   0.100D+01
 Coeff:     -0.224D-01 0.486D-01 0.451D-01 0.379D-01-0.563D+00-0.836D+00
 Coeff:      0.229D+01
 Gap=     0.297 Goal=   None    Shift=    0.000
 Gap=     0.297 Goal=   None    Shift=    0.000
 RMSDP=1.56D-04 MaxDP=7.24D-03 DE=-1.70D-03 OVMax= 5.87D-02

 Cycle   8  Pass 1  IDiag  1:
 RMSU=  4.79D-05    CP:  8.96D-01  2.35D+00  1.38D+00  2.64D+00  2.97D+00
                    CP:  3.00D+00  2.85D+00
 E= -466.837756517739     Delta-E=       -0.001690010203 Rises=F Damp=F
 DIIS: error= 5.32D-04 at cycle   8 NSaved=   8.
 NSaved= 8 IEnMin= 8 EnMin= -466.837756517739     IErMin= 8 ErrMin= 5.32D-04
 ErrMax= 5.32D-04  0.00D+00 EMaxC= 1.00D-01 BMatC= 9.86D-05 BMatP= 3.09D-04
 IDIUse=3 WtCom= 9.95D-01 WtEn= 5.32D-03
 Coeff-Com:  0.304D-01-0.654D-01-0.126D-01 0.319D+00-0.179D+00-0.105D+01
 Coeff-Com:  0.769D+00 0.118D+01
 Coeff-En:   0.000D+00 0.000D+00 0.000D+00 0.000D+00 0.000D+00 0.000D+00
 Coeff-En:   0.000D+00 0.100D+01
 Coeff:      0.303D-01-0.651D-01-0.125D-01 0.317D+00-0.178D+00-0.104D+01
 Coeff:      0.765D+00 0.118D+01
 Gap=     0.299 Goal=   None    Shift=    0.000
 Gap=     0.299 Goal=   None    Shift=    0.000
 RMSDP=9.31D-05 MaxDP=4.49D-03 DE=-1.69D-03 OVMax= 3.53D-02

 Cycle   9  Pass 1  IDiag  1:
 RMSU=  5.97D-05    CP:  8.94D-01  2.34D+00  1.41D+00  2.81D+00  3.00D+00
                    CP:  3.00D+00  3.00D+00  2.06D+00
 E= -466.838214647957     Delta-E=       -0.000458130218 Rises=F Damp=F
 DIIS: error= 1.94D-04 at cycle   9 NSaved=   9.
 NSaved= 9 IEnMin= 9 EnMin= -466.838214647957     IErMin= 9 ErrMin= 1.94D-04
 ErrMax= 1.94D-04  0.00D+00 EMaxC= 1.00D-01 BMatC= 2.15D-05 BMatP= 9.86D-05
 IDIUse=3 WtCom= 9.98D-01 WtEn= 1.94D-03
 Coeff-Com:  0.196D-01-0.422D-01-0.152D-01 0.143D+00 0.368D-01-0.301D+00
 Coeff-Com: -0.122D+00 0.462D+00 0.819D+00
 Coeff-En:   0.000D+00 0.000D+00 0.000D+00 0.000D+00 0.000D+00 0.000D+00
 Coeff-En:   0.000D+00 0.000D+00 0.100D+01
 Coeff:      0.195D-01-0.421D-01-0.152D-01 0.143D+00 0.367D-01-0.300D+00
 Coeff:     -0.121D+00 0.461D+00 0.819D+00
 Gap=     0.299 Goal=   None    Shift=    0.000
 Gap=     0.299 Goal=   None    Shift=    0.000
 RMSDP=2.74D-05 MaxDP=1.37D-03 DE=-4.58D-04 OVMax= 1.04D-02

 Cycle  10  Pass 1  IDiag  1:
 RMSU=  6.55D-06    CP:  8.94D-01  2.34D+00  1.42D+00  2.85D+00  3.00D+00
                    CP:  3.00D+00  3.00D+00  2.38D+00  1.31D+00
 E= -466.838264716630     Delta-E=       -0.000050068673 Rises=F Damp=F
 DIIS: error= 9.41D-05 at cycle  10 NSaved=  10.
 NSaved=10 IEnMin=10 EnMin= -466.838264716630     IErMin=10 ErrMin= 9.41D-05
 ErrMax= 9.41D-05  0.00D+00 EMaxC= 1.00D-01 BMatC= 3.35D-06 BMatP= 2.15D-05
 IDIUse=1 WtCom= 1.00D+00 WtEn= 0.00D+00
 Coeff-Com: -0.176D-02 0.383D-02-0.614D-03-0.363D-01 0.389D-01 0.146D+00
 Coeff-Com: -0.154D+00-0.221D+00 0.106D+00 0.112D+01
 Coeff:     -0.176D-02 0.383D-02-0.614D-03-0.363D-01 0.389D-01 0.146D+00
 Coeff:     -0.154D+00-0.221D+00 0.106D+00 0.112D+01
 Gap=     0.298 Goal=   None    Shift=    0.000
 Gap=     0.298 Goal=   None    Shift=    0.000
 RMSDP=1.55D-05 MaxDP=6.56D-04 DE=-5.01D-05 OVMax= 5.90D-03

 Cycle  11  Pass 1  IDiag  1:
 RMSU=  3.75D-06    CP:  8.93D-01  2.34D+00  1.42D+00  2.87D+00  3.00D+00
                    CP:  3.00D+00  3.00D+00  2.55D+00  1.48D+00  1.62D+00
 E= -466.838274282659     Delta-E=       -0.000009566029 Rises=F Damp=F
 DIIS: error= 2.89D-05 at cycle  11 NSaved=  11.
 NSaved=11 IEnMin=11 EnMin= -466.838274282659     IErMin=11 ErrMin= 2.89D-05
 ErrMax= 2.89D-05  0.00D+00 EMaxC= 1.00D-01 BMatC= 7.29D-07 BMatP= 3.35D-06
 IDIUse=1 WtCom= 1.00D+00 WtEn= 0.00D+00
 Coeff-Com: -0.235D-02 0.508D-02 0.121D-02-0.256D-01 0.888D-02 0.738D-01
 Coeff-Com: -0.321D-01-0.129D+00-0.566D-01 0.434D+00 0.723D+00
 Coeff:     -0.235D-02 0.508D-02 0.121D-02-0.256D-01 0.888D-02 0.738D-01
 Coeff:     -0.321D-01-0.129D+00-0.566D-01 0.434D+00 0.723D+00
 Gap=     0.298 Goal=   None    Shift=    0.000
 Gap=     0.298 Goal=   None    Shift=    0.000
 RMSDP=2.82D-06 MaxDP=1.29D-04 DE=-9.57D-06 OVMax= 1.01D-03

 Cycle  12  Pass 1  IDiag  1:
 RMSU=  1.03D-06    CP:  8.93D-01  2.34D+00  1.42D+00  2.88D+00  3.00D+00
                    CP:  3.00D+00  3.00D+00  2.58D+00  1.51D+00  1.77D+00
                    CP:  1.19D+00
 E= -466.838274849241     Delta-E=       -0.000000566582 Rises=F Damp=F
 DIIS: error= 1.64D-05 at cycle  12 NSaved=  12.
 NSaved=12 IEnMin=12 EnMin= -466.838274849241     IErMin=12 ErrMin= 1.64D-05
 ErrMax= 1.64D-05  0.00D+00 EMaxC= 1.00D-01 BMatC= 9.81D-08 BMatP= 7.29D-07
 IDIUse=1 WtCom= 1.00D+00 WtEn= 0.00D+00
 Coeff-Com:  0.817D-03-0.178D-02-0.293D-03 0.104D-01-0.551D-02-0.359D-01
 Coeff-Com:  0.279D-01 0.519D-01-0.502D-02-0.229D+00-0.259D-01 0.121D+01
 Coeff:      0.817D-03-0.178D-02-0.293D-03 0.104D-01-0.551D-02-0.359D-01
 Coeff:      0.279D-01 0.519D-01-0.502D-02-0.229D+00-0.259D-01 0.121D+01
 Gap=     0.298 Goal=   None    Shift=    0.000
 Gap=     0.298 Goal=   None    Shift=    0.000
 RMSDP=1.06D-06 MaxDP=4.35D-05 DE=-5.67D-07 OVMax= 2.04D-04

 Cycle  13  Pass 1  IDiag  1:
 RMSU=  6.12D-07    CP:  8.93D-01  2.34D+00  1.42D+00  2.88D+00  3.00D+00
                    CP:  3.00D+00  3.00D+00  2.58D+00  1.51D+00  1.82D+00
                    CP:  1.32D+00  1.55D+00
 E= -466.838274997099     Delta-E=       -0.000000147858 Rises=F Damp=F
 DIIS: error= 8.60D-06 at cycle  13 NSaved=  13.
 NSaved=13 IEnMin=13 EnMin= -466.838274997099     IErMin=13 ErrMin= 8.60D-06
 ErrMax= 8.60D-06  0.00D+00 EMaxC= 1.00D-01 BMatC= 2.56D-08 BMatP= 9.81D-08
 IDIUse=1 WtCom= 1.00D+00 WtEn= 0.00D+00
 Coeff-Com: -0.134D-04 0.326D-04 0.663D-04 0.512D-03-0.853D-03-0.207D-02
 Coeff-Com:  0.165D-02 0.709D-02 0.787D-03-0.350D-01-0.918D-01-0.115D+00
 Coeff-Com:  0.123D+01
 Coeff:     -0.134D-04 0.326D-04 0.663D-04 0.512D-03-0.853D-03-0.207D-02
 Coeff:      0.165D-02 0.709D-02 0.787D-03-0.350D-01-0.918D-01-0.115D+00
 Coeff:      0.123D+01
 Gap=     0.298 Goal=   None    Shift=    0.000
 Gap=     0.298 Goal=   None    Shift=    0.000
 RMSDP=5.14D-07 MaxDP=3.04D-05 DE=-1.48D-07 OVMax= 1.35D-04

 Cycle  14  Pass 1  IDiag  1:
 RMSU=  2.90D-07    CP:  8.93D-01  2.34D+00  1.42D+00  2.88D+00  3.00D+00
                    CP:  3.00D+00  3.00D+00  2.58D+00  1.51D+00  1.84D+00
                    CP:  1.36D+00  1.75D+00  1.45D+00
 E= -466.838275047922     Delta-E=       -0.000000050823 Rises=F Damp=F
 DIIS: error= 5.00D-06 at cycle  14 NSaved=  14.
 NSaved=14 IEnMin=14 EnMin= -466.838275047922     IErMin=14 ErrMin= 5.00D-06
 ErrMax= 5.00D-06  0.00D+00 EMaxC= 1.00D-01 BMatC= 8.55D-09 BMatP= 2.56D-08
 IDIUse=1 WtCom= 1.00D+00 WtEn= 0.00D+00
 Coeff-Com: -0.358D-03 0.775D-03 0.209D-03-0.379D-02 0.145D-02 0.123D-01
 Coeff-Com: -0.895D-02-0.170D-01 0.136D-02 0.769D-01 0.197D-02-0.431D+00
 Coeff-Com:  0.103D-01 0.136D+01
 Coeff:     -0.358D-03 0.775D-03 0.209D-03-0.379D-02 0.145D-02 0.123D-01
 Coeff:     -0.895D-02-0.170D-01 0.136D-02 0.769D-01 0.197D-02-0.431D+00
 Coeff:      0.103D-01 0.136D+01
 Gap=     0.298 Goal=   None    Shift=    0.000
 Gap=     0.298 Goal=   None    Shift=    0.000
 RMSDP=4.16D-07 MaxDP=2.05D-05 DE=-5.08D-08 OVMax= 1.02D-04

 Cycle  15  Pass 1  IDiag  1:
 RMSU=  1.52D-07    CP:  8.93D-01  2.34D+00  1.42D+00  2.88D+00  3.00D+00
                    CP:  3.00D+00  3.00D+00  2.58D+00  1.51D+00  1.84D+00
                    CP:  1.36D+00  1.85D+00  1.84D+00  1.97D+00
 E= -466.838275068111     Delta-E=       -0.000000020189 Rises=F Damp=F
 DIIS: error= 1.80D-06 at cycle  15 NSaved=  15.
 NSaved=15 IEnMin=15 EnMin= -466.838275068111     IErMin=15 ErrMin= 1.80D-06
 ErrMax= 1.80D-06  0.00D+00 EMaxC= 1.00D-01 BMatC= 1.41D-09 BMatP= 8.55D-09
 IDIUse=1 WtCom= 1.00D+00 WtEn= 0.00D+00
 Coeff-Com: -0.140D-04 0.293D-04-0.208D-04-0.376D-03 0.505D-03 0.161D-02
 Coeff-Com: -0.214D-02-0.278D-02 0.248D-02 0.192D-01 0.167D-01-0.463D-01
 Coeff-Com: -0.280D+00 0.204D+00 0.109D+01
 Coeff:     -0.140D-04 0.293D-04-0.208D-04-0.376D-03 0.505D-03 0.161D-02
 Coeff:     -0.214D-02-0.278D-02 0.248D-02 0.192D-01 0.167D-01-0.463D-01
 Coeff:     -0.280D+00 0.204D+00 0.109D+01
 Gap=     0.298 Goal=   None    Shift=    0.000
 Gap=     0.298 Goal=   None    Shift=    0.000
 RMSDP=2.10D-07 MaxDP=8.76D-06 DE=-2.02D-08 OVMax= 4.76D-05

 Cycle  16  Pass 1  IDiag  1:
 RMSU=  6.33D-08    CP:  8.93D-01  2.34D+00  1.42D+00  2.88D+00  3.00D+00
                    CP:  3.00D+00  3.00D+00  2.58D+00  1.51D+00  1.84D+00
                    CP:  1.36D+00  1.86D+00  1.98D+00  2.41D+00  1.47D+00
 E= -466.838275070735     Delta-E=       -0.000000002624 Rises=F Damp=F
 DIIS: error= 4.17D-07 at cycle  16 NSaved=  16.
 NSaved=16 IEnMin=16 EnMin= -466.838275070735     IErMin=16 ErrMin= 4.17D-07
 ErrMax= 4.17D-07  0.00D+00 EMaxC= 1.00D-01 BMatC= 1.45D-10 BMatP= 1.41D-09
 IDIUse=1 WtCom= 1.00D+00 WtEn= 0.00D+00
 Coeff-Com:  0.759D-05-0.166D-04-0.979D-05 0.954D-04 0.273D-04-0.258D-03
 Coeff-Com:  0.301D-04 0.399D-03 0.333D-03-0.165D-02 0.462D-02 0.285D-01
 Coeff-Com: -0.667D-01-0.974D-01 0.268D+00 0.864D+00
 Coeff:      0.759D-05-0.166D-04-0.979D-05 0.954D-04 0.273D-04-0.258D-03
 Coeff:      0.301D-04 0.399D-03 0.333D-03-0.165D-02 0.462D-02 0.285D-01
 Coeff:     -0.667D-01-0.974D-01 0.268D+00 0.864D+00
 Gap=     0.298 Goal=   None    Shift=    0.000
 Gap=     0.298 Goal=   None    Shift=    0.000
 RMSDP=4.84D-08 MaxDP=2.26D-06 DE=-2.62D-09 OVMax= 8.96D-06

 Cycle  17  Pass 1  IDiag  1:
 RMSU=  1.89D-08    CP:  8.93D-01  2.34D+00  1.42D+00  2.88D+00  3.00D+00
                    CP:  3.00D+00  3.00D+00  2.58D+00  1.51D+00  1.84D+00
                    CP:  1.36D+00  1.86D+00  2.00D+00  2.49D+00  1.59D+00
                    CP:  1.34D+00
 E= -466.838275070860     Delta-E=       -0.000000000125 Rises=F Damp=F
 DIIS: error= 9.65D-08 at cycle  17 NSaved=  17.
 NSaved=17 IEnMin=17 EnMin= -466.838275070860     IErMin=17 ErrMin= 9.65D-08
 ErrMax= 9.65D-08  0.00D+00 EMaxC= 1.00D-01 BMatC= 1.37D-11 BMatP= 1.45D-10
 IDIUse=1 WtCom= 1.00D+00 WtEn= 0.00D+00
 Coeff-Com: -0.138D-05 0.307D-05 0.145D-05 0.343D-05-0.264D-04-0.134D-04
 Coeff-Com:  0.671D-04 0.157D-03-0.216D-03-0.161D-02-0.582D-03 0.747D-02
 Coeff-Com:  0.173D-01-0.345D-01-0.696D-01 0.156D+00 0.926D+00
 Coeff:     -0.138D-05 0.307D-05 0.145D-05 0.343D-05-0.264D-04-0.134D-04
 Coeff:      0.671D-04 0.157D-03-0.216D-03-0.161D-02-0.582D-03 0.747D-02
 Coeff:      0.173D-01-0.345D-01-0.696D-01 0.156D+00 0.926D+00
 Gap=     0.298 Goal=   None    Shift=    0.000
 Gap=     0.298 Goal=   None    Shift=    0.000
 RMSDP=1.34D-08 MaxDP=5.44D-07 DE=-1.25D-10 OVMax= 1.76D-06

 Cycle  18  Pass 1  IDiag  1:
 RMSU=  6.59D-09    CP:  8.93D-01  2.34D+00  1.42D+00  2.88D+00  3.00D+00
                    CP:  3.00D+00  3.00D+00  2.58D+00  1.51D+00  1.84D+00
                    CP:  1.36D+00  1.86D+00  2.00D+00  2.49D+00  1.64D+00
                    CP:  1.47D+00  1.20D+00
 E= -466.838275070869     Delta-E=       -0.000000000009 Rises=F Damp=F
 DIIS: error= 2.42D-08 at cycle  18 NSaved=  18.
 NSaved=18 IEnMin=18 EnMin= -466.838275070869     IErMin=18 ErrMin= 2.42D-08
 ErrMax= 2.42D-08  0.00D+00 EMaxC= 1.00D-01 BMatC= 1.17D-12 BMatP= 1.37D-11
 IDIUse=1 WtCom= 1.00D+00 WtEn= 0.00D+00
 Coeff-Com:  0.870D-06-0.189D-05 0.246D-06 0.738D-05-0.164D-04-0.190D-04
 Coeff-Com:  0.253D-04 0.575D-04-0.341D-04-0.256D-03-0.623D-03-0.117D-02
 Coeff-Com:  0.914D-02 0.409D-02-0.364D-01-0.715D-01 0.106D+00 0.990D+00
 Coeff:      0.870D-06-0.189D-05 0.246D-06 0.738D-05-0.164D-04-0.190D-04
 Coeff:      0.253D-04 0.575D-04-0.341D-04-0.256D-03-0.623D-03-0.117D-02
 Coeff:      0.914D-02 0.409D-02-0.364D-01-0.715D-01 0.106D+00 0.990D+00
 Gap=     0.298 Goal=   None    Shift=    0.000
 Gap=     0.298 Goal=   None    Shift=    0.000
 RMSDP=4.55D-09 MaxDP=2.10D-07 DE=-8.75D-12 OVMax= 4.77D-07

 Error on total polarization charges =  0.01123
 SCF Done:  E(UwB97XD) =  -466.838275071     A.U. after   18 cycles
            NFock= 18  Conv=0.45D-08     -V/T= 2.0055
 <Sx>= 0.0000 <Sy>= 0.0000 <Sz>= 0.0000 <S**2>= 0.0000 S= 0.0000
 <L.S>=  0.00000000000    
 KE= 4.642746074388D+02 PE=-2.449217631546D+03 EE= 8.344844797583D+02
 --------------------------------------------------------------------
 Variational PCM results
 =======================
 <psi(f)|   H    |psi(f)>                     (a.u.) =    -466.846919
 <psi(f)|H+V(f)/2|psi(f)>                     (a.u.) =    -466.848466
 Total free energy in solution:
 - with all non electrostatic terms           (a.u.) =    -466.838275
 --------------------------------------------------------------------
 (Polarized solute)-Solvent               (kcal/mol) =      -0.97
 --------------------------------------------------------------------
 Quantum repulsion energy                 (kcal/mol) =       6.39
 Total non electrostatic                  (kcal/mol) =       6.39
 --------------------------------------------------------------------
 Partition over spheres:
 Sphere  on Atom  Surface  Charge   GEl     GCav    GDR
    1               7.21   0.011   -0.05    0.00    0.00
    2               4.24   0.006   -0.04    0.00    0.00
    3               7.52  -0.010   -0.04    0.00    0.00
    4               2.63  -0.004   -0.01    0.00    0.00
    5               4.62   0.009   -0.06    0.00    0.00
    6               4.29   0.006   -0.04    0.00    0.00
    7               4.59  -0.006   -0.03    0.00    0.00
    8               2.93  -0.003   -0.01    0.00    0.00
    9               3.40   0.002    0.00    0.00    0.00
   10               6.74  -0.007   -0.01    0.00    0.00
   11               2.58  -0.002   -0.01    0.00    0.00
   12               6.48   0.010   -0.06    0.00    0.00
   13               7.52  -0.010   -0.03    0.00    0.00
   14               7.35   0.011   -0.05    0.00    0.00
   15               7.52  -0.010   -0.04    0.00    0.00
   16               3.65   0.001    0.00    0.00    0.00
   17               3.77  -0.004   -0.01    0.00    0.00
   18               6.94  -0.008   -0.03    0.00    0.00
   19               5.44   0.010   -0.07    0.00    0.00
   20               5.25  -0.007   -0.03    0.00    0.00
   21               6.96   0.010   -0.06    0.00    0.00
   22               7.52  -0.010   -0.03    0.00    0.00
   23               3.53   0.002    0.00    0.00    0.00
   24               3.94  -0.003   -0.01    0.00    0.00
   25               6.74  -0.007   -0.01    0.00    0.00
   26               3.25   0.001    0.00    0.00    0.00
   27               6.95  -0.008   -0.03    0.00    0.00
   28               3.76  -0.004   -0.01    0.00    0.00
 Added spheres:    72.39   0.012   -0.21    0.00    0.00
 --------------------------------------------------------------------
 After PCM corrections, the energy is  -466.838275071     a.u.
 --------------------------------------------------------------------
 Annihilation of the first spin contaminant:
 S**2 before annihilation     0.0000,   after     0.0000
 Leave Link  502 at Tue Aug  4 06:43:35 2020, MaxMem=  6442450944 cpu:            8013.4 elap:             336.7
 (Enter /scratch/scicomp/CentOS/7.3.1611/Haswell/software/Gaussian/g16/l601.exe)
 Copying SCF densities to generalized density rwf, IOpCl= 1 IROHF=0.

 **********************************************************************

            Population analysis using the SCF Density.

 **********************************************************************

 Alpha  occ. eigenvalues --  -10.28416 -10.28416 -10.28060 -10.28057 -10.28056
 Alpha  occ. eigenvalues --  -10.28055 -10.28032 -10.28030 -10.27797 -10.27796
 Alpha  occ. eigenvalues --  -10.27167 -10.27165  -0.94317  -0.93362  -0.84455
 Alpha  occ. eigenvalues --   -0.84193  -0.83539  -0.83468  -0.71530  -0.70950
 Alpha  occ. eigenvalues --   -0.68098  -0.67752  -0.59733  -0.59632  -0.57425
 Alpha  occ. eigenvalues --   -0.56378  -0.53609  -0.52795  -0.50882  -0.50821
 Alpha  occ. eigenvalues --   -0.49731  -0.49034  -0.47433  -0.46752  -0.45520
 Alpha  occ. eigenvalues --   -0.44801  -0.41311  -0.40845  -0.39748  -0.39097
 Alpha  occ. eigenvalues --   -0.39063  -0.38620  -0.29937  -0.26763
 Alpha virt. eigenvalues --    0.03020   0.05990   0.11402   0.13203   0.14445
 Alpha virt. eigenvalues --    0.15502   0.15605   0.16598   0.16638   0.16851
 Alpha virt. eigenvalues --    0.17470   0.17680   0.18288   0.19231   0.20925
 Alpha virt. eigenvalues --    0.22177   0.22325   0.23684   0.24254   0.24864
 Alpha virt. eigenvalues --    0.25439   0.26136   0.26674   0.27314   0.28437
 Alpha virt. eigenvalues --    0.29282   0.29800   0.30082   0.31087   0.31215
 Alpha virt. eigenvalues --    0.31675   0.32447   0.32992   0.33469   0.34672
 Alpha virt. eigenvalues --    0.34679   0.35303   0.36492   0.36791   0.37957
 Alpha virt. eigenvalues --    0.39081   0.39263   0.41994   0.42363   0.42726
 Alpha virt. eigenvalues --    0.42755   0.44740   0.44808   0.45768   0.46357
 Alpha virt. eigenvalues --    0.47362   0.48103   0.48813   0.48852   0.49343
 Alpha virt. eigenvalues --    0.49622   0.49698   0.49753   0.50557   0.50818
 Alpha virt. eigenvalues --    0.51304   0.51330   0.52890   0.52895   0.53545
 Alpha virt. eigenvalues --    0.53955   0.54939   0.55068   0.56040   0.56072
 Alpha virt. eigenvalues --    0.57740   0.57816   0.58236   0.59951   0.60993
 Alpha virt. eigenvalues --    0.61517   0.61561   0.62497   0.63657   0.65886
 Alpha virt. eigenvalues --    0.66073   0.66480   0.68356   0.68915   0.69015
 Alpha virt. eigenvalues --    0.69374   0.72637   0.74012   0.75005   0.75860
 Alpha virt. eigenvalues --    0.78485   0.78562   0.78942   0.80536   0.80770
 Alpha virt. eigenvalues --    0.82142   0.83386   0.84353   0.85829   0.87940
 Alpha virt. eigenvalues --    0.89950   0.91215   0.91489   0.93382   0.93723
 Alpha virt. eigenvalues --    0.94960   0.97211   0.97257   0.99213   0.99259
 Alpha virt. eigenvalues --    1.01624   1.03696   1.04871   1.05417   1.05619
 Alpha virt. eigenvalues --    1.07410   1.08107   1.08200   1.10860   1.11501
 Alpha virt. eigenvalues --    1.12804   1.13160   1.14636   1.15674   1.16770
 Alpha virt. eigenvalues --    1.17241   1.18369   1.19058   1.19421   1.20269
 Alpha virt. eigenvalues --    1.20389   1.20869   1.23612   1.25441   1.25617
 Alpha virt. eigenvalues --    1.26292   1.26969   1.28385   1.29209   1.29384
 Alpha virt. eigenvalues --    1.30451   1.31769   1.31973   1.32226   1.33271
 Alpha virt. eigenvalues --    1.34433   1.34929   1.37317   1.37876   1.38399
 Alpha virt. eigenvalues --    1.38762   1.39944   1.41110   1.41191   1.42321
 Alpha virt. eigenvalues --    1.42943   1.43124   1.43789   1.44544   1.45065
 Alpha virt. eigenvalues --    1.45480   1.46394   1.47754   1.49140   1.49146
 Alpha virt. eigenvalues --    1.50468   1.51778   1.53419   1.54819   1.56726
 Alpha virt. eigenvalues --    1.58443   1.58753   1.59820   1.61280   1.61843
 Alpha virt. eigenvalues --    1.63576   1.63670   1.64490   1.66419   1.66770
 Alpha virt. eigenvalues --    1.68282   1.71408   1.75077   1.75592   1.78294
 Alpha virt. eigenvalues --    1.80527   1.82121   1.82596   1.83913   1.84954
 Alpha virt. eigenvalues --    1.88218   1.89016   1.90783   1.91845   1.93100
 Alpha virt. eigenvalues --    1.93934   1.96606   1.98349   1.99864   2.01286
 Alpha virt. eigenvalues --    2.03754   2.03964   2.09434   2.10797   2.11286
 Alpha virt. eigenvalues --    2.12403   2.12840   2.14685   2.15837   2.16833
 Alpha virt. eigenvalues --    2.17774   2.20207   2.20620   2.22428   2.23356
 Alpha virt. eigenvalues --    2.24372   2.24961   2.25629   2.28654   2.30698
 Alpha virt. eigenvalues --    2.35425   2.36628   2.38668   2.40990   2.42279
 Alpha virt. eigenvalues --    2.44619   2.45526   2.46024   2.49235   2.49360
 Alpha virt. eigenvalues --    2.50040   2.50978   2.51818   2.54782   2.56124
 Alpha virt. eigenvalues --    2.58051   2.58754   2.60026   2.62744   2.63275
 Alpha virt. eigenvalues --    2.63354   2.64538   2.65515   2.65995   2.66193
 Alpha virt. eigenvalues --    2.67908   2.68575   2.70431   2.72988   2.73004
 Alpha virt. eigenvalues --    2.73703   2.74636   2.75750   2.75751   2.77206
 Alpha virt. eigenvalues --    2.78941   2.79410   2.80747   2.81001   2.81524
 Alpha virt. eigenvalues --    2.82148   2.83189   2.83612   2.84421   2.86068
 Alpha virt. eigenvalues --    2.86358   2.87790   2.87829   2.89613   2.89959
 Alpha virt. eigenvalues --    2.91820   2.92777   2.93192   2.94576   2.95884
 Alpha virt. eigenvalues --    2.96587   2.97518   2.97826   2.98960   3.01142
 Alpha virt. eigenvalues --    3.01497   3.02671   3.03954   3.05589   3.06202
 Alpha virt. eigenvalues --    3.06824   3.09194   3.09986   3.11316   3.11329
 Alpha virt. eigenvalues --    3.11958   3.13550   3.13815   3.14786   3.15581
 Alpha virt. eigenvalues --    3.16118   3.17038   3.17162   3.18650   3.19312
 Alpha virt. eigenvalues --    3.20385   3.20988   3.21127   3.21427   3.21816
 Alpha virt. eigenvalues --    3.22777   3.23018   3.23172   3.24330   3.25691
 Alpha virt. eigenvalues --    3.25821   3.26793   3.27876   3.28072   3.29010
 Alpha virt. eigenvalues --    3.29030   3.30370   3.30920   3.31451   3.32774
 Alpha virt. eigenvalues --    3.32952   3.33474   3.34320   3.35875   3.36604
 Alpha virt. eigenvalues --    3.37062   3.37098   3.38556   3.39311   3.41271
 Alpha virt. eigenvalues --    3.42914   3.43657   3.44025   3.45380   3.45555
 Alpha virt. eigenvalues --    3.46271   3.46534   3.47185   3.47741   3.47778
 Alpha virt. eigenvalues --    3.48996   3.50376   3.50536   3.51820   3.53969
 Alpha virt. eigenvalues --    3.54233   3.54365   3.55658   3.56363   3.57866
 Alpha virt. eigenvalues --    3.59189   3.60393   3.60908   3.62280   3.64845
 Alpha virt. eigenvalues --    3.65702   3.67253   3.69245   3.69310   3.70118
 Alpha virt. eigenvalues --    3.70996   3.71626   3.74220   3.75716   3.77107
 Alpha virt. eigenvalues --    3.79323   3.79956   3.80302   3.82082   3.83980
 Alpha virt. eigenvalues --    3.84947   3.85842   3.86307   3.88543   3.89635
 Alpha virt. eigenvalues --    3.91187   3.92070   3.95091   3.95585   3.98312
 Alpha virt. eigenvalues --    3.99951   4.02352   4.03238   4.04230   4.06909
 Alpha virt. eigenvalues --    4.08144   4.09276   4.09335   4.10000   4.11982
 Alpha virt. eigenvalues --    4.13629   4.13741   4.16405   4.16596   4.18775
 Alpha virt. eigenvalues --    4.19889   4.22721   4.22739   4.24047   4.27094
 Alpha virt. eigenvalues --    4.27154   4.29141   4.31828   4.32065   4.36457
 Alpha virt. eigenvalues --    4.37390   4.38110   4.39782   4.41783   4.44529
 Alpha virt. eigenvalues --    4.46881   4.49357   4.49735   4.50135   4.53972
 Alpha virt. eigenvalues --    4.55741   4.60392   4.62243   4.67116   4.67875
 Alpha virt. eigenvalues --    4.70550   4.70621   4.72965   4.75429   4.77088
 Alpha virt. eigenvalues --    4.78703   4.81347   4.83184   4.85131   4.85809
 Alpha virt. eigenvalues --    4.86253   4.88963   4.93471   4.95601   4.96547
 Alpha virt. eigenvalues --    4.98813   5.04756   5.05002   5.08885   5.09165
 Alpha virt. eigenvalues --    5.14205   5.18068   5.19156   5.22666   5.24309
 Alpha virt. eigenvalues --    5.25050   5.34706   5.35586   5.41504   5.42888
 Alpha virt. eigenvalues --    5.45528   5.46611   5.51241   5.55217   5.71752
 Alpha virt. eigenvalues --    5.71839   5.78092   5.79188   5.97066   6.02407
 Alpha virt. eigenvalues --    7.95174   7.95518   8.02078   8.04145   8.05391
 Alpha virt. eigenvalues --    8.09651   8.10854   8.13938   8.17308   8.20111
 Alpha virt. eigenvalues --    8.36132   8.36743  34.77030  34.77990  34.81572
 Alpha virt. eigenvalues --   34.81790  34.84955  34.91243  34.96096  35.00523
 Alpha virt. eigenvalues --   35.01429  35.02921  35.18163  35.18329
  Beta  occ. eigenvalues --  -10.28416 -10.28416 -10.28060 -10.28057 -10.28056
  Beta  occ. eigenvalues --  -10.28055 -10.28032 -10.28030 -10.27797 -10.27796
  Beta  occ. eigenvalues --  -10.27167 -10.27165  -0.94317  -0.93362  -0.84455
  Beta  occ. eigenvalues --   -0.84193  -0.83539  -0.83468  -0.71530  -0.70950
  Beta  occ. eigenvalues --   -0.68098  -0.67752  -0.59733  -0.59632  -0.57425
  Beta  occ. eigenvalues --   -0.56378  -0.53609  -0.52795  -0.50882  -0.50821
  Beta  occ. eigenvalues --   -0.49731  -0.49034  -0.47433  -0.46752  -0.45520
  Beta  occ. eigenvalues --   -0.44801  -0.41311  -0.40845  -0.39748  -0.39097
  Beta  occ. eigenvalues --   -0.39063  -0.38620  -0.29937  -0.26763
  Beta virt. eigenvalues --    0.03020   0.05990   0.11402   0.13203   0.14445
  Beta virt. eigenvalues --    0.15502   0.15605   0.16598   0.16638   0.16851
  Beta virt. eigenvalues --    0.17470   0.17680   0.18288   0.19231   0.20925
  Beta virt. eigenvalues --    0.22177   0.22325   0.23684   0.24254   0.24864
  Beta virt. eigenvalues --    0.25439   0.26136   0.26674   0.27314   0.28437
  Beta virt. eigenvalues --    0.29282   0.29800   0.30082   0.31087   0.31215
  Beta virt. eigenvalues --    0.31675   0.32447   0.32992   0.33469   0.34672
  Beta virt. eigenvalues --    0.34679   0.35303   0.36492   0.36791   0.37957
  Beta virt. eigenvalues --    0.39081   0.39263   0.41994   0.42363   0.42726
  Beta virt. eigenvalues --    0.42755   0.44740   0.44808   0.45768   0.46357
  Beta virt. eigenvalues --    0.47362   0.48103   0.48813   0.48852   0.49343
  Beta virt. eigenvalues --    0.49622   0.49698   0.49753   0.50557   0.50818
  Beta virt. eigenvalues --    0.51304   0.51330   0.52890   0.52895   0.53545
  Beta virt. eigenvalues --    0.53955   0.54939   0.55068   0.56040   0.56072
  Beta virt. eigenvalues --    0.57740   0.57816   0.58236   0.59951   0.60993
  Beta virt. eigenvalues --    0.61517   0.61561   0.62497   0.63657   0.65886
  Beta virt. eigenvalues --    0.66073   0.66480   0.68356   0.68915   0.69015
  Beta virt. eigenvalues --    0.69374   0.72637   0.74012   0.75005   0.75860
  Beta virt. eigenvalues --    0.78485   0.78562   0.78942   0.80536   0.80770
  Beta virt. eigenvalues --    0.82142   0.83386   0.84353   0.85829   0.87940
  Beta virt. eigenvalues --    0.89950   0.91215   0.91489   0.93382   0.93723
  Beta virt. eigenvalues --    0.94960   0.97211   0.97257   0.99213   0.99259
  Beta virt. eigenvalues --    1.01624   1.03696   1.04871   1.05417   1.05619
  Beta virt. eigenvalues --    1.07410   1.08107   1.08200   1.10860   1.11501
  Beta virt. eigenvalues --    1.12804   1.13160   1.14636   1.15674   1.16770
  Beta virt. eigenvalues --    1.17241   1.18369   1.19058   1.19421   1.20269
  Beta virt. eigenvalues --    1.20389   1.20869   1.23612   1.25441   1.25617
  Beta virt. eigenvalues --    1.26292   1.26969   1.28385   1.29209   1.29384
  Beta virt. eigenvalues --    1.30451   1.31769   1.31973   1.32226   1.33271
  Beta virt. eigenvalues --    1.34433   1.34929   1.37317   1.37876   1.38399
  Beta virt. eigenvalues --    1.38762   1.39944   1.41110   1.41191   1.42321
  Beta virt. eigenvalues --    1.42943   1.43124   1.43789   1.44544   1.45065
  Beta virt. eigenvalues --    1.45480   1.46394   1.47754   1.49140   1.49146
  Beta virt. eigenvalues --    1.50468   1.51778   1.53419   1.54819   1.56726
  Beta virt. eigenvalues --    1.58443   1.58753   1.59820   1.61280   1.61843
  Beta virt. eigenvalues --    1.63576   1.63670   1.64490   1.66419   1.66770
  Beta virt. eigenvalues --    1.68282   1.71408   1.75077   1.75592   1.78294
  Beta virt. eigenvalues --    1.80527   1.82121   1.82596   1.83913   1.84954
  Beta virt. eigenvalues --    1.88218   1.89016   1.90783   1.91845   1.93100
  Beta virt. eigenvalues --    1.93934   1.96606   1.98349   1.99864   2.01286
  Beta virt. eigenvalues --    2.03754   2.03964   2.09434   2.10797   2.11286
  Beta virt. eigenvalues --    2.12403   2.12840   2.14685   2.15837   2.16833
  Beta virt. eigenvalues --    2.17774   2.20207   2.20620   2.22428   2.23356
  Beta virt. eigenvalues --    2.24372   2.24961   2.25629   2.28654   2.30698
  Beta virt. eigenvalues --    2.35425   2.36628   2.38668   2.40990   2.42279
  Beta virt. eigenvalues --    2.44619   2.45526   2.46024   2.49235   2.49360
  Beta virt. eigenvalues --    2.50040   2.50978   2.51818   2.54782   2.56124
  Beta virt. eigenvalues --    2.58051   2.58754   2.60026   2.62744   2.63275
  Beta virt. eigenvalues --    2.63354   2.64538   2.65515   2.65995   2.66193
  Beta virt. eigenvalues --    2.67908   2.68575   2.70431   2.72988   2.73004
  Beta virt. eigenvalues --    2.73703   2.74636   2.75750   2.75751   2.77206
  Beta virt. eigenvalues --    2.78941   2.79410   2.80747   2.81001   2.81524
  Beta virt. eigenvalues --    2.82148   2.83189   2.83612   2.84421   2.86068
  Beta virt. eigenvalues --    2.86358   2.87790   2.87829   2.89613   2.89959
  Beta virt. eigenvalues --    2.91820   2.92777   2.93192   2.94576   2.95884
  Beta virt. eigenvalues --    2.96587   2.97518   2.97826   2.98960   3.01142
  Beta virt. eigenvalues --    3.01497   3.02671   3.03954   3.05589   3.06202
  Beta virt. eigenvalues --    3.06824   3.09194   3.09986   3.11316   3.11329
  Beta virt. eigenvalues --    3.11958   3.13550   3.13815   3.14786   3.15581
  Beta virt. eigenvalues --    3.16118   3.17038   3.17162   3.18650   3.19312
  Beta virt. eigenvalues --    3.20385   3.20988   3.21127   3.21427   3.21816
  Beta virt. eigenvalues --    3.22777   3.23018   3.23172   3.24330   3.25691
  Beta virt. eigenvalues --    3.25821   3.26793   3.27876   3.28072   3.29010
  Beta virt. eigenvalues --    3.29030   3.30370   3.30920   3.31451   3.32774
  Beta virt. eigenvalues --    3.32952   3.33474   3.34320   3.35875   3.36604
  Beta virt. eigenvalues --    3.37062   3.37098   3.38556   3.39311   3.41271
  Beta virt. eigenvalues --    3.42914   3.43657   3.44025   3.45380   3.45555
  Beta virt. eigenvalues --    3.46271   3.46534   3.47185   3.47741   3.47778
  Beta virt. eigenvalues --    3.48996   3.50376   3.50536   3.51820   3.53969
  Beta virt. eigenvalues --    3.54233   3.54365   3.55658   3.56363   3.57866
  Beta virt. eigenvalues --    3.59189   3.60393   3.60908   3.62280   3.64845
  Beta virt. eigenvalues --    3.65702   3.67253   3.69245   3.69310   3.70118
  Beta virt. eigenvalues --    3.70996   3.71626   3.74220   3.75716   3.77107
  Beta virt. eigenvalues --    3.79323   3.79956   3.80302   3.82082   3.83980
  Beta virt. eigenvalues --    3.84947   3.85842   3.86307   3.88543   3.89635
  Beta virt. eigenvalues --    3.91187   3.92070   3.95091   3.95585   3.98312
  Beta virt. eigenvalues --    3.99951   4.02352   4.03238   4.04230   4.06909
  Beta virt. eigenvalues --    4.08144   4.09276   4.09335   4.10000   4.11982
  Beta virt. eigenvalues --    4.13629   4.13741   4.16405   4.16596   4.18775
  Beta virt. eigenvalues --    4.19889   4.22721   4.22739   4.24047   4.27094
  Beta virt. eigenvalues --    4.27154   4.29141   4.31828   4.32065   4.36457
  Beta virt. eigenvalues --    4.37390   4.38110   4.39782   4.41783   4.44529
  Beta virt. eigenvalues --    4.46881   4.49357   4.49735   4.50135   4.53972
  Beta virt. eigenvalues --    4.55741   4.60392   4.62243   4.67116   4.67875
  Beta virt. eigenvalues --    4.70550   4.70621   4.72965   4.75429   4.77088
  Beta virt. eigenvalues --    4.78703   4.81347   4.83184   4.85131   4.85809
  Beta virt. eigenvalues --    4.86253   4.88963   4.93471   4.95601   4.96547
  Beta virt. eigenvalues --    4.98813   5.04756   5.05002   5.08885   5.09165
  Beta virt. eigenvalues --    5.14205   5.18068   5.19156   5.22666   5.24309
  Beta virt. eigenvalues --    5.25050   5.34706   5.35586   5.41504   5.42888
  Beta virt. eigenvalues --    5.45528   5.46611   5.51241   5.55217   5.71752
  Beta virt. eigenvalues --    5.71839   5.78092   5.79188   5.97066   6.02407
  Beta virt. eigenvalues --    7.95174   7.95518   8.02078   8.04145   8.05391
  Beta virt. eigenvalues --    8.09651   8.10854   8.13938   8.17308   8.20111
  Beta virt. eigenvalues --    8.36132   8.36743  34.77030  34.77990  34.81572
  Beta virt. eigenvalues --   34.81790  34.84955  34.91243  34.96096  35.00523
  Beta virt. eigenvalues --   35.01429  35.02921  35.18163  35.18329
          Condensed to atoms (all electrons):
               1          2          3          4          5          6
     1  C    5.149863  -0.003892   0.424330  -0.001780   0.001803  -0.008355
     2  C   -0.003892   5.408844  -0.002273   0.424886  -0.053889  -0.015136
     3  H    0.424330  -0.002273   0.491599   0.000026  -0.000046   0.000018
     4  H   -0.001780   0.424886   0.000026   0.459013  -0.009540   0.002368
     5  C    0.001803  -0.053889  -0.000046  -0.009540   5.217509   0.476179
     6  C   -0.008355  -0.015136   0.000018   0.002368   0.476179   5.408003
     7  H    0.000308  -0.003025   0.000001  -0.000054   0.427780  -0.026972
     8  H   -0.002298   0.002324  -0.000057   0.000119  -0.035133   0.424871
     9  C    0.002653  -0.015189  -0.000008  -0.002531  -0.055438   0.196561
    10  H   -0.000045   0.001474  -0.000001  -0.000266  -0.006126  -0.039193
    11  H    0.000126  -0.008175   0.000002   0.000445   0.010183  -0.062537
    12  C   -0.000207   0.015216   0.000002   0.003353   0.280838  -0.065474
    13  H   -0.000001   0.000101   0.000000   0.000035  -0.036666   0.005141
    14  C    0.000178  -0.008317  -0.000000  -0.002348  -0.043879  -0.003815
    15  H   -0.000000   0.000018  -0.000000  -0.000058   0.007044  -0.002269
    16  C   -0.000639   0.016398   0.000000   0.000779  -0.004349  -0.055258
    17  H   -0.000020   0.000506  -0.000000  -0.002800   0.009317  -0.002732
    18  H    0.000003   0.000325   0.000000   0.000355  -0.003247   0.011812
    19  C   -0.043758   0.475824   0.007042  -0.035212  -0.024628  -0.053861
    20  H    0.003765  -0.026882  -0.000083  -0.003923   0.000334  -0.003031
    21  C    0.573782  -0.065321  -0.031644   0.004397   0.002888   0.015207
    22  H   -0.025754   0.005132  -0.005726  -0.000047   0.000035   0.000101
    23  C   -0.082633   0.196516   0.005237  -0.011074   0.013213  -0.015212
    24  H    0.013661  -0.062523  -0.000073  -0.003846   0.000582  -0.008179
    25  H    0.004096  -0.039215  -0.000040  -0.000919   0.000773   0.001475
    26  C    0.272096  -0.055208  -0.029108   0.003693  -0.009723   0.016380
    27  H   -0.038229   0.011826  -0.004309  -0.000071   0.000289   0.000324
    28  H   -0.033904  -0.002739   0.000933  -0.000149  -0.003653   0.000497
               7          8          9         10         11         12
     1  C    0.000308  -0.002298   0.002653  -0.000045   0.000126  -0.000207
     2  C   -0.003025   0.002324  -0.015189   0.001474  -0.008175   0.015216
     3  H    0.000001  -0.000057  -0.000008  -0.000001   0.000002   0.000002
     4  H   -0.000054   0.000119  -0.002531  -0.000266   0.000445   0.003353
     5  C    0.427780  -0.035133  -0.055438  -0.006126   0.010183   0.280838
     6  C   -0.026972   0.424871   0.196561  -0.039193  -0.062537  -0.065474
     7  H    0.474304  -0.003946   0.002768  -0.000230  -0.000006  -0.029987
     8  H   -0.003946   0.459655  -0.011203  -0.000915  -0.003857   0.004402
     9  C    0.002768  -0.011203   5.012803   0.389641   0.469359   0.037221
    10  H   -0.000230  -0.000915   0.389641   0.569174  -0.020473   0.001220
    11  H   -0.000006  -0.003857   0.469359  -0.020473   0.527836  -0.004977
    12  C   -0.029987   0.004402   0.037221   0.001220  -0.004977   5.016895
    13  H   -0.003244  -0.000048  -0.000198  -0.000060   0.000025   0.425527
    14  C    0.003770  -0.001780  -0.082653   0.004087   0.013660   0.573888
    15  H   -0.000083   0.000026   0.005234  -0.000040  -0.000073  -0.031659
    16  C   -0.000994   0.003702   0.335864  -0.021503  -0.058496  -0.052279
    17  H    0.000013  -0.000148  -0.029634   0.006384  -0.007686  -0.013841
    18  H    0.000028  -0.000072  -0.044682  -0.009438  -0.000593   0.006008
    19  C    0.000336  -0.009612   0.013257   0.000775   0.000610   0.002883
    20  H    0.000009  -0.000055   0.003287   0.000316  -0.002159  -0.000153
    21  C   -0.000154   0.003426  -0.003710  -0.000085  -0.000037  -0.000376
    22  H   -0.000001   0.000036  -0.000085  -0.000001  -0.000009  -0.000000
    23  C    0.003284  -0.002544   0.002272  -0.000058   0.000402  -0.003678
    24  H   -0.002162   0.000446   0.000401  -0.000020  -0.000021  -0.000024
    25  H    0.000316  -0.000266  -0.000058   0.000008  -0.000020  -0.000085
    26  C   -0.002055   0.000808  -0.001198   0.000062  -0.000131   0.001226
    27  H   -0.000018   0.000356  -0.000013   0.000000  -0.000000  -0.000041
    28  H    0.001662  -0.002812   0.000484   0.000005  -0.000000   0.000392
              13         14         15         16         17         18
     1  C   -0.000001   0.000178  -0.000000  -0.000639  -0.000020   0.000003
     2  C    0.000101  -0.008317   0.000018   0.016398   0.000506   0.000325
     3  H    0.000000  -0.000000  -0.000000   0.000000  -0.000000   0.000000
     4  H    0.000035  -0.002348  -0.000058   0.000779  -0.002800   0.000355
     5  C   -0.036666  -0.043879   0.007044  -0.004349   0.009317  -0.003247
     6  C    0.005141  -0.003815  -0.002269  -0.055258  -0.002732   0.011812
     7  H   -0.003244   0.003770  -0.000083  -0.000994   0.000013   0.000028
     8  H   -0.000048  -0.001780   0.000026   0.003702  -0.000148  -0.000072
     9  C   -0.000198  -0.082653   0.005234   0.335864  -0.029634  -0.044682
    10  H   -0.000060   0.004087  -0.000040  -0.021503   0.006384  -0.009438
    11  H    0.000025   0.013660  -0.000073  -0.058496  -0.007686  -0.000593
    12  C    0.425527   0.573888  -0.031659  -0.052279  -0.013841   0.006008
    13  H    0.489290  -0.025743  -0.005728   0.004276  -0.000379  -0.000090
    14  C   -0.025743   5.149881   0.424327   0.272101  -0.033920  -0.038234
    15  H   -0.005728   0.424327   0.491579  -0.029105   0.000933  -0.004310
    16  C    0.004276   0.272101  -0.029105   4.953063   0.399433   0.436701
    17  H   -0.000379  -0.033920   0.000933   0.399433   0.580138  -0.022162
    18  H   -0.000090  -0.038234  -0.004310   0.436701  -0.022162   0.537257
    19  C    0.000035   0.001794  -0.000046  -0.009733  -0.003654   0.000289
    20  H   -0.000001   0.000308   0.000001  -0.002055   0.001658  -0.000018
    21  C   -0.000000  -0.000207   0.000002   0.001227   0.000392  -0.000041
    22  H    0.000000  -0.000001   0.000000   0.000016  -0.000000  -0.000001
    23  C   -0.000084   0.002652  -0.000008  -0.001194   0.000482  -0.000013
    24  H   -0.000009   0.000124   0.000002  -0.000129  -0.000000  -0.000000
    25  H   -0.000001  -0.000045  -0.000001   0.000062   0.000005   0.000000
    26  C    0.000016  -0.000638   0.000000   0.000819   0.000027  -0.000004
    27  H   -0.000001   0.000003   0.000000  -0.000004   0.000001  -0.000000
    28  H   -0.000000  -0.000020  -0.000000   0.000027  -0.000013   0.000001
              19         20         21         22         23         24
     1  C   -0.043758   0.003765   0.573782  -0.025754  -0.082633   0.013661
     2  C    0.475824  -0.026882  -0.065321   0.005132   0.196516  -0.062523
     3  H    0.007042  -0.000083  -0.031644  -0.005726   0.005237  -0.000073
     4  H   -0.035212  -0.003923   0.004397  -0.000047  -0.011074  -0.003846
     5  C   -0.024628   0.000334   0.002888   0.000035   0.013213   0.000582
     6  C   -0.053861  -0.003031   0.015207   0.000101  -0.015212  -0.008179
     7  H    0.000336   0.000009  -0.000154  -0.000001   0.003284  -0.002162
     8  H   -0.009612  -0.000055   0.003426   0.000036  -0.002544   0.000446
     9  C    0.013257   0.003287  -0.003710  -0.000085   0.002272   0.000401
    10  H    0.000775   0.000316  -0.000085  -0.000001  -0.000058  -0.000020
    11  H    0.000610  -0.002159  -0.000037  -0.000009   0.000402  -0.000021
    12  C    0.002883  -0.000153  -0.000376  -0.000000  -0.003678  -0.000024
    13  H    0.000035  -0.000001  -0.000000   0.000000  -0.000084  -0.000009
    14  C    0.001794   0.000308  -0.000207  -0.000001   0.002652   0.000124
    15  H   -0.000046   0.000001   0.000002   0.000000  -0.000008   0.000002
    16  C   -0.009733  -0.002055   0.001227   0.000016  -0.001194  -0.000129
    17  H   -0.003654   0.001658   0.000392  -0.000000   0.000482  -0.000000
    18  H    0.000289  -0.000018  -0.000041  -0.000001  -0.000013  -0.000000
    19  C    5.218092   0.427793   0.280391  -0.036666  -0.055456   0.010191
    20  H    0.427793   0.474128  -0.030060  -0.003240   0.002763  -0.000006
    21  C    0.280391  -0.030060   5.017283   0.425557   0.037237  -0.004979
    22  H   -0.036666  -0.003240   0.425557   0.489274  -0.000198   0.000025
    23  C   -0.055456   0.002763   0.037237  -0.000198   5.013176   0.469358
    24  H    0.010191  -0.000006  -0.004979   0.000025   0.469358   0.527549
    25  H   -0.006092  -0.000230   0.001200  -0.000060   0.389597  -0.020453
    26  C   -0.004390  -0.000995  -0.052281   0.004273   0.335773  -0.058464
    27  H   -0.003255   0.000028   0.006014  -0.000090  -0.044725  -0.000601
    28  H    0.009345   0.000013  -0.013889  -0.000379  -0.029662  -0.007678
              25         26         27         28
     1  C    0.004096   0.272096  -0.038229  -0.033904
     2  C   -0.039215  -0.055208   0.011826  -0.002739
     3  H   -0.000040  -0.029108  -0.004309   0.000933
     4  H   -0.000919   0.003693  -0.000071  -0.000149
     5  C    0.000773  -0.009723   0.000289  -0.003653
     6  C    0.001475   0.016380   0.000324   0.000497
     7  H    0.000316  -0.002055  -0.000018   0.001662
     8  H   -0.000266   0.000808   0.000356  -0.002812
     9  C   -0.000058  -0.001198  -0.000013   0.000484
    10  H    0.000008   0.000062   0.000000   0.000005
    11  H   -0.000020  -0.000131  -0.000000  -0.000000
    12  C   -0.000085   0.001226  -0.000041   0.000392
    13  H   -0.000001   0.000016  -0.000001  -0.000000
    14  C   -0.000045  -0.000638   0.000003  -0.000020
    15  H   -0.000001   0.000000   0.000000  -0.000000
    16  C    0.000062   0.000819  -0.000004   0.000027
    17  H    0.000005   0.000027   0.000001  -0.000013
    18  H    0.000000  -0.000004  -0.000000   0.000001
    19  C   -0.006092  -0.004390  -0.003255   0.009345
    20  H   -0.000230  -0.000995   0.000028   0.000013
    21  C    0.001200  -0.052281   0.006014  -0.013889
    22  H   -0.000060   0.004273  -0.000090  -0.000379
    23  C    0.389597   0.335773  -0.044725  -0.029662
    24  H   -0.020453  -0.058464  -0.000601  -0.007678
    25  H    0.569178  -0.021489  -0.009431   0.006382
    26  C   -0.021489   4.953271   0.436731   0.399426
    27  H   -0.009431   0.436731   0.537193  -0.022138
    28  H    0.006382   0.399426  -0.022138   0.580091
          Atomic-Atomic Spin Densities.
               1          2          3          4          5          6
     1  C    0.000000  -0.000000  -0.000000   0.000000   0.000000   0.000000
     2  C   -0.000000  -0.000000   0.000000   0.000000  -0.000000   0.000000
     3  H   -0.000000   0.000000   0.000000   0.000000  -0.000000   0.000000
     4  H    0.000000   0.000000   0.000000  -0.000000  -0.000000   0.000000
     5  C    0.000000  -0.000000  -0.000000  -0.000000   0.000001  -0.000000
     6  C    0.000000   0.000000   0.000000   0.000000  -0.000000  -0.000001
     7  H   -0.000000   0.000000   0.000000   0.000000  -0.000000   0.000000
     8  H    0.000000  -0.000000  -0.000000  -0.000000  -0.000000  -0.000000
     9  C   -0.000000   0.000000  -0.000000  -0.000000  -0.000000   0.000000
    10  H   -0.000000   0.000000  -0.000000   0.000000  -0.000000   0.000000
    11  H    0.000000  -0.000000   0.000000  -0.000000   0.000000  -0.000000
    12  C   -0.000000  -0.000000   0.000000   0.000000  -0.000000   0.000000
    13  H    0.000000   0.000000   0.000000   0.000000  -0.000000  -0.000000
    14  C    0.000000  -0.000000  -0.000000  -0.000000  -0.000000   0.000000
    15  H    0.000000  -0.000000   0.000000   0.000000  -0.000000   0.000000
    16  C   -0.000000   0.000000   0.000000   0.000000   0.000000  -0.000000
    17  H    0.000000   0.000000  -0.000000   0.000000   0.000000  -0.000000
    18  H   -0.000000  -0.000000   0.000000  -0.000000  -0.000000  -0.000000
    19  C   -0.000000  -0.000000  -0.000000   0.000000  -0.000000   0.000000
    20  H    0.000000  -0.000000   0.000000   0.000000  -0.000000  -0.000000
    21  C    0.000000  -0.000000   0.000000  -0.000000   0.000000  -0.000000
    22  H   -0.000000   0.000000  -0.000000  -0.000000  -0.000000  -0.000000
    23  C   -0.000000  -0.000000   0.000000  -0.000000  -0.000000  -0.000000
    24  H   -0.000000   0.000000  -0.000000  -0.000000   0.000000   0.000000
    25  H   -0.000000   0.000000   0.000000   0.000000   0.000000  -0.000000
    26  C    0.000000   0.000000  -0.000000  -0.000000   0.000000  -0.000000
    27  H   -0.000000   0.000000  -0.000000  -0.000000   0.000000  -0.000000
    28  H   -0.000000  -0.000000   0.000000   0.000000  -0.000000   0.000000
               7          8          9         10         11         12
     1  C   -0.000000   0.000000  -0.000000  -0.000000   0.000000  -0.000000
     2  C    0.000000  -0.000000   0.000000   0.000000  -0.000000  -0.000000
     3  H    0.000000  -0.000000  -0.000000  -0.000000   0.000000   0.000000
     4  H    0.000000  -0.000000  -0.000000   0.000000  -0.000000   0.000000
     5  C   -0.000000  -0.000000  -0.000000  -0.000000   0.000000  -0.000000
     6  C    0.000000  -0.000000   0.000000   0.000000  -0.000000   0.000000
     7  H    0.000000  -0.000000   0.000000  -0.000000   0.000000   0.000000
     8  H   -0.000000   0.000000   0.000000  -0.000000  -0.000000   0.000000
     9  C    0.000000   0.000000  -0.000001  -0.000000   0.000000  -0.000000
    10  H   -0.000000  -0.000000  -0.000000   0.000000  -0.000000  -0.000000
    11  H    0.000000  -0.000000   0.000000  -0.000000   0.000000  -0.000000
    12  C    0.000000   0.000000  -0.000000  -0.000000  -0.000000  -0.000001
    13  H    0.000000   0.000000   0.000000  -0.000000   0.000000   0.000000
    14  C   -0.000000  -0.000000   0.000000   0.000000   0.000000  -0.000000
    15  H   -0.000000  -0.000000  -0.000000  -0.000000   0.000000   0.000000
    16  C   -0.000000   0.000000   0.000000  -0.000000  -0.000000   0.000000
    17  H   -0.000000  -0.000000   0.000000   0.000000  -0.000000   0.000000
    18  H    0.000000  -0.000000   0.000000  -0.000000  -0.000000  -0.000000
    19  C    0.000000   0.000000   0.000000  -0.000000  -0.000000  -0.000000
    20  H   -0.000000  -0.000000   0.000000  -0.000000   0.000000   0.000000
    21  C   -0.000000  -0.000000  -0.000000   0.000000   0.000000   0.000000
    22  H   -0.000000  -0.000000  -0.000000   0.000000  -0.000000   0.000000
    23  C   -0.000000   0.000000   0.000000  -0.000000   0.000000   0.000000
    24  H   -0.000000   0.000000  -0.000000   0.000000  -0.000000  -0.000000
    25  H    0.000000  -0.000000   0.000000  -0.000000  -0.000000  -0.000000
    26  C    0.000000  -0.000000   0.000000   0.000000   0.000000  -0.000000
    27  H   -0.000000   0.000000  -0.000000   0.000000   0.000000  -0.000000
    28  H    0.000000  -0.000000   0.000000  -0.000000  -0.000000   0.000000
              13         14         15         16         17         18
     1  C    0.000000   0.000000   0.000000  -0.000000   0.000000  -0.000000
     2  C    0.000000  -0.000000  -0.000000   0.000000   0.000000  -0.000000
     3  H    0.000000  -0.000000   0.000000   0.000000  -0.000000   0.000000
     4  H    0.000000  -0.000000   0.000000   0.000000   0.000000  -0.000000
     5  C   -0.000000  -0.000000  -0.000000   0.000000   0.000000  -0.000000
     6  C   -0.000000   0.000000   0.000000  -0.000000  -0.000000  -0.000000
     7  H    0.000000  -0.000000  -0.000000  -0.000000  -0.000000   0.000000
     8  H    0.000000  -0.000000  -0.000000   0.000000  -0.000000  -0.000000
     9  C    0.000000   0.000000  -0.000000   0.000000   0.000000   0.000000
    10  H   -0.000000   0.000000  -0.000000  -0.000000   0.000000  -0.000000
    11  H    0.000000   0.000000   0.000000  -0.000000  -0.000000  -0.000000
    12  C    0.000000  -0.000000   0.000000   0.000000   0.000000  -0.000000
    13  H   -0.000000  -0.000000   0.000000  -0.000000  -0.000000   0.000000
    14  C   -0.000000   0.000001  -0.000000  -0.000000  -0.000000  -0.000000
    15  H    0.000000  -0.000000  -0.000000   0.000000  -0.000000   0.000000
    16  C   -0.000000  -0.000000   0.000000   0.000000  -0.000000  -0.000000
    17  H   -0.000000  -0.000000  -0.000000  -0.000000  -0.000000   0.000000
    18  H    0.000000  -0.000000   0.000000  -0.000000   0.000000  -0.000000
    19  C    0.000000  -0.000000   0.000000  -0.000000   0.000000  -0.000000
    20  H    0.000000   0.000000  -0.000000   0.000000  -0.000000   0.000000
    21  C   -0.000000   0.000000  -0.000000   0.000000  -0.000000   0.000000
    22  H    0.000000  -0.000000  -0.000000   0.000000  -0.000000   0.000000
    23  C    0.000000   0.000000   0.000000   0.000000  -0.000000   0.000000
    24  H    0.000000  -0.000000  -0.000000   0.000000   0.000000  -0.000000
    25  H   -0.000000  -0.000000   0.000000  -0.000000   0.000000  -0.000000
    26  C   -0.000000   0.000000  -0.000000   0.000000   0.000000   0.000000
    27  H   -0.000000   0.000000   0.000000  -0.000000   0.000000  -0.000000
[...]
     4  H    0.000000  -0.000000  -0.000000   0.000000
     5  C    0.000000   0.000000   0.000000  -0.000000
     6  C   -0.000000  -0.000000  -0.000000   0.000000
     7  H   -0.000000   0.000000  -0.000000   0.000000
     8  H   -0.000000  -0.000000   0.000000  -0.000000
     9  C    0.000000   0.000000  -0.000000   0.000000
    10  H   -0.000000   0.000000   0.000000   0.000000
    11  H   -0.000000  -0.000000   0.000000  -0.000000
    12  C   -0.000000  -0.000000  -0.000000   0.000000
    13  H   -0.000000  -0.000000  -0.000000   0.000000
    14  C   -0.000000   0.000000   0.000000  -0.000000
    15  H    0.000000  -0.000000   0.000000   0.000000
    16  C   -0.000000   0.000000  -0.000000  -0.000000
    17  H    0.000000   0.000000   0.000000   0.000000
    18  H   -0.000000   0.000000  -0.000000  -0.000000
    19  C    0.000000   0.000000  -0.000000   0.000000
    20  H    0.000000   0.000000  -0.000000   0.000000
    21  C   -0.000000   0.000000   0.000000  -0.000000
    22  H    0.000000   0.000000  -0.000000   0.000000
    23  C    0.000000  -0.000000  -0.000000  -0.000000
    24  H    0.000000   0.000000   0.000000   0.000000
    25  H   -0.000000   0.000000   0.000000  -0.000000
    26  C    0.000000  -0.000001   0.000000   0.000000
    27  H    0.000000   0.000000   0.000000  -0.000000
    28  H   -0.000000   0.000000  -0.000000   0.000000
 Mulliken charges and spin densities:
               1          2
     1  C   -0.202766   0.000001
     2  C   -0.207933  -0.000001
     3  H    0.147896   0.000000
     4  H    0.180011  -0.000000
     5  C   -0.176515   0.000001
     6  C   -0.207712  -0.000001
     7  H    0.165464   0.000000
     8  H    0.179538   0.000000
     9  C   -0.236898  -0.000001
    10  H    0.132919   0.000000
    11  H    0.152322   0.000000
    12  C   -0.166227  -0.000001
    13  H    0.151120   0.000000
    14  C   -0.203531   0.000001
    15  H    0.147790  -0.000000
    16  C   -0.196676   0.000000
    17  H    0.124014  -0.000000
    18  H    0.134383  -0.000000
    19  C   -0.176529   0.000000
    20  H    0.166212  -0.000000
    21  C   -0.166105  -0.000001
    22  H    0.150704   0.000000
    23  C   -0.236513   0.000001
    24  H    0.151419  -0.000000
    25  H    0.132901  -0.000000
    26  C   -0.196327  -0.000000
    27  H    0.134433   0.000000
    28  H    0.122609   0.000000
 Sum of Mulliken charges =  -0.00000   0.00000
 Mulliken charges and spin densities with hydrogens summed into heavy atoms:
               1          2
     1  C   -0.054871   0.000001
     2  C   -0.027922  -0.000001
     5  C   -0.011050   0.000001
     6  C   -0.028175  -0.000001
     9  C    0.048343  -0.000000
    12  C   -0.015108  -0.000001
    14  C   -0.055742   0.000001
    16  C    0.061720   0.000000
    19  C   -0.010317   0.000000
    21  C   -0.015401  -0.000000
    23  C    0.047807   0.000000
    26  C    0.060715  -0.000000
 Electronic spatial extent (au):  <R**2>=           2239.2729
 Charge=              0.0000 electrons
 Dipole moment (field-independent basis, Debye):
    X=              0.0015    Y=             -0.0063    Z=             -0.0035  Tot=              0.0074
 Quadrupole moment (field-independent basis, Debye-Ang):
   XX=            -70.1542   YY=            -68.1769   ZZ=            -75.6970
   XY=             -3.4030   XZ=             -3.4469   YZ=             -1.6360
 Traceless Quadrupole moment (field-independent basis, Debye-Ang):
   XX=              1.1885   YY=              3.1658   ZZ=             -4.3543
   XY=             -3.4030   XZ=             -3.4469   YZ=             -1.6360
 Octapole moment (field-independent basis, Debye-Ang**2):
  XXX=             -0.0075  YYY=             -0.0530  ZZZ=             -0.0177  XYY=              0.0135
  XXY=              0.0027  XXZ=             -0.0086  XZZ=              0.0053  YZZ=             -0.0098
  YYZ=             -0.0046  XYZ=              0.0153
 Hexadecapole moment (field-independent basis, Debye-Ang**3):
 XXXX=          -1999.7367 YYYY=           -609.3040 ZZZZ=           -354.0653 XXXY=           -104.1028
 XXXZ=           -131.5852 YYYX=            -58.3441 YYYZ=             -3.3834 ZZZX=            -77.9988
 ZZZY=            -14.5680 XXYY=           -432.3051 XXZZ=           -417.9102 YYZZ=           -175.7820
 XXYZ=            -22.5528 YYXZ=            -28.7384 ZZXY=            -43.9368
 N-N= 6.836202692779D+02 E-N=-2.449901726292D+03  KE= 4.643884717056D+02
                          Isotropic Fermi Contact Couplings
        Atom                 a.u.       MegaHertz       Gauss      10(-4) cm-1
     1  C(13)              0.00000       0.00003       0.00001       0.00001
     2  C(13)             -0.00000      -0.00005      -0.00002      -0.00002
     3  H(1)              -0.00000      -0.00001      -0.00000      -0.00000
     4  H(1)               0.00000       0.00001       0.00000       0.00000
     5  C(13)              0.00000       0.00006       0.00002       0.00002
     6  C(13)             -0.00000      -0.00006      -0.00002      -0.00002
     7  H(1)               0.00000       0.00000       0.00000       0.00000
     8  H(1)               0.00000       0.00005       0.00002       0.00002
     9  C(13)             -0.00000      -0.00017      -0.00006      -0.00006
    10  H(1)               0.00000       0.00009       0.00003       0.00003
    11  H(1)               0.00000       0.00013       0.00005       0.00004
    12  C(13)             -0.00000      -0.00007      -0.00002      -0.00002
    13  H(1)               0.00000       0.00002       0.00001       0.00001
    14  C(13)              0.00000       0.00008       0.00003       0.00003
    15  H(1)              -0.00000      -0.00006      -0.00002      -0.00002
    16  C(13)              0.00000       0.00009       0.00003       0.00003
    17  H(1)              -0.00000      -0.00000      -0.00000      -0.00000
    18  H(1)              -0.00000      -0.00000      -0.00000      -0.00000
    19  C(13)              0.00000       0.00004       0.00002       0.00001
    20  H(1)              -0.00000      -0.00005      -0.00002      -0.00002
    21  C(13)             -0.00000      -0.00004      -0.00002      -0.00001
    22  H(1)               0.00000       0.00003       0.00001       0.00001
    23  C(13)              0.00000       0.00022       0.00008       0.00007
    24  H(1)              -0.00000      -0.00016      -0.00006      -0.00005
    25  H(1)              -0.00000      -0.00016      -0.00006      -0.00005
    26  C(13)             -0.00000      -0.00014      -0.00005      -0.00005
    27  H(1)               0.00000       0.00005       0.00002       0.00002
    28  H(1)               0.00000       0.00009       0.00003       0.00003
 --------------------------------------------------------
       Center         ----  Spin Dipole Couplings  ----
                      3XX-RR        3YY-RR        3ZZ-RR
 --------------------------------------------------------
     1   Atom       -0.000000     -0.000000      0.000001
     2   Atom        0.000000      0.000000     -0.000000
     3   Atom        0.000000     -0.000000     -0.000000
     4   Atom       -0.000000      0.000000     -0.000000
     5   Atom       -0.000000     -0.000000      0.000001
     6   Atom        0.000000      0.000001     -0.000001
     7   Atom       -0.000000     -0.000000      0.000000
     8   Atom       -0.000000      0.000000     -0.000000
     9   Atom       -0.000000      0.000000     -0.000000
    10   Atom        0.000000      0.000000     -0.000000
    11   Atom        0.000000     -0.000000      0.000000
    12   Atom        0.000000      0.000000     -0.000001
    13   Atom        0.000000     -0.000000     -0.000000
    14   Atom       -0.000000     -0.000001      0.000001
    15   Atom        0.000000     -0.000000      0.000000
    16   Atom        0.000000     -0.000000      0.000000
    17   Atom       -0.000000     -0.000000      0.000000
    18   Atom       -0.000000      0.000000     -0.000000
    19   Atom       -0.000000     -0.000000      0.000000
    20   Atom       -0.000000      0.000000     -0.000000
    21   Atom        0.000000      0.000000     -0.000000
    22   Atom        0.000000     -0.000000      0.000000
    23   Atom        0.000000     -0.000000      0.000000
    24   Atom        0.000000      0.000000     -0.000000
    25   Atom       -0.000000     -0.000000      0.000000
    26   Atom       -0.000000      0.000000     -0.000000
    27   Atom       -0.000000      0.000000      0.000000
    28   Atom        0.000000      0.000000     -0.000000
 --------------------------------------------------------
                        XY            XZ            YZ
 --------------------------------------------------------
     1   Atom        0.000000      0.000000      0.000000
     2   Atom       -0.000000     -0.000000     -0.000000
     3   Atom        0.000000      0.000000      0.000000
     4   Atom       -0.000000      0.000000     -0.000000
     5   Atom        0.000000      0.000000      0.000000
     6   Atom       -0.000000     -0.000001     -0.000000
     7   Atom       -0.000000      0.000000      0.000000
     8   Atom       -0.000000      0.000000     -0.000000
     9   Atom       -0.000000     -0.000000     -0.000000
    10   Atom        0.000000     -0.000000      0.000000
    11   Atom       -0.000000     -0.000000     -0.000000
    12   Atom       -0.000000     -0.000000     -0.000000
    13   Atom       -0.000000     -0.000000      0.000000
    14   Atom       -0.000000      0.000001     -0.000000
    15   Atom        0.000000     -0.000000     -0.000000
    16   Atom       -0.000000     -0.000000      0.000000
    17   Atom        0.000000      0.000000      0.000000
    18   Atom       -0.000000      0.000000     -0.000000
    19   Atom        0.000000      0.000000      0.000000
    20   Atom       -0.000000      0.000000      0.000000
    21   Atom        0.000000     -0.000000      0.000000
    22   Atom       -0.000000     -0.000000      0.000000
    23   Atom        0.000000      0.000000      0.000000
    24   Atom        0.000000      0.000000      0.000000
    25   Atom        0.000000      0.000000     -0.000000
    26   Atom        0.000000      0.000000     -0.000000
    27   Atom        0.000000     -0.000000      0.000000
    28   Atom        0.000000     -0.000000     -0.000000
 --------------------------------------------------------


 ---------------------------------------------------------------------------------
              Anisotropic Spin Dipole Couplings in Principal Axis System
 ---------------------------------------------------------------------------------

       Atom             a.u.   MegaHertz   Gauss  10(-4) cm-1        Axes

              Baa    -0.0000    -0.000    -0.000    -0.000  0.9088 -0.3382 -0.2441
     1 C(13)  Bbb    -0.0000    -0.000    -0.000    -0.000  0.3074  0.9387 -0.1560
              Bcc     0.0000     0.000     0.000     0.000  0.2819  0.0668  0.9571
 
              Baa    -0.0000    -0.000    -0.000    -0.000  0.3396  0.2401  0.9094
     2 C(13)  Bbb     0.0000     0.000     0.000     0.000 -0.4912  0.8698 -0.0462
              Bcc     0.0000     0.000     0.000     0.000  0.8021  0.4311 -0.4133
 
              Baa    -0.0000    -0.000    -0.000    -0.000 -0.1565  0.9877 -0.0071
     3 H(1)   Bbb    -0.0000    -0.000    -0.000    -0.000 -0.0218  0.0037  0.9998
              Bcc     0.0000     0.000     0.000     0.000  0.9874  0.1566  0.0210
 
              Baa    -0.0000    -0.000    -0.000    -0.000 -0.5681 -0.0270  0.8225
     4 H(1)   Bbb    -0.0000    -0.000    -0.000    -0.000  0.8065  0.1807  0.5629
              Bcc     0.0000     0.000     0.000     0.000 -0.1638  0.9832 -0.0809
 
              Baa    -0.0000    -0.000    -0.000    -0.000  0.0095  0.9957 -0.0925
     5 C(13)  Bbb    -0.0000    -0.000    -0.000    -0.000  0.9528 -0.0371 -0.3015
              Bcc     0.0000     0.000     0.000     0.000  0.3036  0.0852  0.9490
 
              Baa    -0.0000    -0.000    -0.000    -0.000  0.4572  0.1437  0.8777
     6 C(13)  Bbb     0.0000     0.000     0.000     0.000  0.8378  0.2614 -0.4793
              Bcc     0.0000     0.000     0.000     0.000 -0.2983  0.9545 -0.0009
 
              Baa    -0.0000    -0.000    -0.000    -0.000  0.6699  0.6602 -0.3397
     7 H(1)   Bbb     0.0000     0.000     0.000     0.000  0.1265  0.3493  0.9284
              Bcc     0.0000     0.000     0.000     0.000  0.7316 -0.6649  0.1505
 
              Baa    -0.0000    -0.000    -0.000    -0.000  0.8602  0.0329 -0.5089
     8 H(1)   Bbb     0.0000     0.000     0.000     0.000  0.4989  0.1518  0.8532
              Bcc     0.0000     0.000     0.000     0.000 -0.1053  0.9879 -0.1142
 
              Baa    -0.0000    -0.000    -0.000    -0.000  0.5989  0.3021  0.7417
     9 C(13)  Bbb    -0.0000    -0.000    -0.000    -0.000 -0.6333 -0.3882  0.6695
              Bcc     0.0000     0.000     0.000     0.000 -0.4902  0.8706  0.0411
 
              Baa    -0.0000    -0.000    -0.000    -0.000  0.4620 -0.1310  0.8771
    10 H(1)   Bbb     0.0000     0.000     0.000     0.000 -0.3992  0.8525  0.3375
              Bcc     0.0000     0.000     0.000     0.000  0.7920  0.5061 -0.3416
 
              Baa    -0.0000    -0.000    -0.000    -0.000  0.4669  0.8757  0.1234
    11 H(1)   Bbb     0.0000     0.000     0.000     0.000  0.2129 -0.2467  0.9454
              Bcc     0.0000     0.000     0.000     0.000  0.8583 -0.4151 -0.3016
 
              Baa    -0.0000    -0.000    -0.000    -0.000  0.3068  0.0295  0.9513
    12 C(13)  Bbb     0.0000     0.000     0.000     0.000  0.7836  0.5595 -0.2701
              Bcc     0.0000     0.000     0.000     0.000 -0.5402  0.8283  0.1485
 
              Baa    -0.0000    -0.000    -0.000    -0.000  0.4911  0.8642 -0.1096
    13 H(1)   Bbb    -0.0000    -0.000    -0.000    -0.000  0.3043 -0.0523  0.9512
              Bcc     0.0000     0.000     0.000     0.000  0.8163 -0.5004 -0.2886
 
              Baa    -0.0000    -0.000    -0.000    -0.000 -0.1682  0.9626  0.2123
    14 C(13)  Bbb    -0.0000    -0.000    -0.000    -0.000  0.8116  0.2575 -0.5245
              Bcc     0.0000     0.000     0.000     0.000  0.5595 -0.0841  0.8245
 
              Baa    -0.0000    -0.000    -0.000    -0.000 -0.0947  0.9869  0.1306
    15 H(1)   Bbb    -0.0000    -0.000    -0.000    -0.000  0.6816 -0.0314  0.7311
              Bcc     0.0000     0.000     0.000     0.000  0.7256  0.1583 -0.6697
 
              Baa    -0.0000    -0.000    -0.000    -0.000  0.0080  0.9997 -0.0222
    16 C(13)  Bbb    -0.0000    -0.000    -0.000    -0.000  0.6819  0.0108  0.7313
              Bcc     0.0000     0.000     0.000     0.000  0.7314 -0.0210 -0.6817
 
              Baa    -0.0000    -0.000    -0.000    -0.000  0.8138 -0.5729 -0.0978
    17 H(1)   Bbb    -0.0000    -0.000    -0.000    -0.000  0.4028  0.6772 -0.6157
              Bcc     0.0000     0.000     0.000     0.000  0.4190  0.4616  0.7819
 
              Baa    -0.0000    -0.000    -0.000    -0.000 -0.1303  0.3413  0.9309
    18 H(1)   Bbb    -0.0000    -0.000    -0.000    -0.000  0.8379  0.5399 -0.0807
              Bcc     0.0000     0.000     0.000     0.000 -0.5301  0.7695 -0.3563
 
              Baa    -0.0000    -0.000    -0.000    -0.000  0.7079  0.4534 -0.5416
    19 C(13)  Bbb    -0.0000    -0.000    -0.000    -0.000 -0.4738  0.8735  0.1119
              Bcc     0.0000     0.000     0.000     0.000  0.5238  0.1775  0.8331
 
              Baa    -0.0000    -0.000    -0.000    -0.000  0.6888  0.6169 -0.3808
    20 H(1)   Bbb    -0.0000    -0.000    -0.000    -0.000  0.4244  0.0826  0.9017
              Bcc     0.0000     0.000     0.000     0.000 -0.5877  0.7827  0.2049
 
              Baa    -0.0000    -0.000    -0.000    -0.000  0.5822 -0.0942  0.8076
    21 C(13)  Bbb     0.0000     0.000     0.000     0.000  0.3217  0.9389 -0.1224
              Bcc     0.0000     0.000     0.000     0.000  0.7467 -0.3311 -0.5769
 
              Baa    -0.0000    -0.000    -0.000    -0.000  0.3479  0.8777 -0.3297
    22 H(1)   Bbb    -0.0000    -0.000    -0.000    -0.000  0.5945  0.0654  0.8014
              Bcc     0.0000     0.000     0.000     0.000  0.7249 -0.4748 -0.4991
 
              Baa    -0.0000    -0.000    -0.000    -0.000 -0.5177  0.8553 -0.0225
    23 C(13)  Bbb     0.0000     0.000     0.000     0.000 -0.1865 -0.0872  0.9786
              Bcc     0.0000     0.000     0.000     0.000  0.8350  0.5108  0.2046
 
              Baa    -0.0000    -0.000    -0.000    -0.000  0.7611 -0.6220  0.1837
    24 H(1)   Bbb    -0.0000    -0.000    -0.000    -0.000 -0.2261  0.0110  0.9740
              Bcc     0.0000     0.000     0.000     0.000  0.6079  0.7829  0.1322
 
              Baa    -0.0000    -0.000    -0.000    -0.000 -0.5212  0.8104  0.2676
    25 H(1)   Bbb    -0.0000    -0.000    -0.000    -0.000  0.7686  0.5820 -0.2656
              Bcc     0.0000     0.000     0.000     0.000  0.3710 -0.0673  0.9262
 
              Baa    -0.0000    -0.000    -0.000    -0.000  0.7382 -0.0532 -0.6725
    26 C(13)  Bbb     0.0000     0.000     0.000     0.000  0.6737  0.0077  0.7390
              Bcc     0.0000     0.000     0.000     0.000  0.0341  0.9986 -0.0415
 
              Baa    -0.0000    -0.000    -0.000    -0.000  0.7616 -0.5714  0.3059
    27 H(1)   Bbb     0.0000     0.000     0.000     0.000 -0.3399  0.0498  0.9391
              Bcc     0.0000     0.000     0.000     0.000  0.5518  0.8192  0.1563
 
              Baa    -0.0000    -0.000    -0.000    -0.000  0.2912  0.2855  0.9131
    28 H(1)   Bbb     0.0000     0.000     0.000     0.000  0.9133 -0.3669 -0.1766
              Bcc     0.0000     0.000     0.000     0.000  0.2846  0.8854 -0.3676
 

 ---------------------------------------------------------------------------------

 No NMR shielding tensors so no spin-rotation constants.
 Leave Link  601 at Tue Aug  4 07:18:00 2020, MaxMem=  6442450944 cpu:               7.9 elap:               0.4
 (Enter /scratch/scicomp/CentOS/7.3.1611/Haswell/software/Gaussian/g16/l9999.exe)
 1\1\GINC-ATLAS-205\SP\UwB97XD\def2TZVP\C12H16\BOCHEN\04-Aug-2020\0\\#p
  uwb97xd guess=mix def2tzvp # scrf=(iefpcm,solvent=Cyclohexane,read) n
 osym 6d 10f\\endo-2 xp-pcm for eta=3\\0,1\C,0,-3.124486,-0.439464,0.25
 0893\C,0,-0.647306,-0.230427,-1.105597\H,0,-4.084971,-0.544748,0.74203
 4\H,0,0.323194,-0.137629,-1.57448\C,0,1.115957,1.415764,0.726197\C,0,0
 .647306,0.230427,1.105597\H,0,0.524506,2.31377,0.854246\H,0,-0.323194,
 0.137629,1.57448\C,0,1.503007,-1.001045,1.03866\H,0,1.985221,-1.095436
 ,2.019831\H,0,0.887003,-1.891265,0.921479\C,0,2.433841,1.521901,0.1059
 46\H,0,2.840105,2.50902,-0.080013\C,0,3.124486,0.439464,-0.250893\H,0,
 4.084971,0.544748,-0.742034\C,0,2.587213,-0.950307,-0.043454\H,0,2.204
 157,-1.326175,-1.000254\H,0,3.400038,-1.626681,0.228849\C,0,-1.115957,
 -1.415764,-0.726197\H,0,-0.524506,-2.31377,-0.854246\C,0,-2.433841,-1.
 521901,-0.105946\H,0,-2.840105,-2.50902,0.080013\C,0,-1.503007,1.00104
 5,-1.03866\H,0,-0.887003,1.891265,-0.921479\H,0,-1.985221,1.095436,-2.
 019831\C,0,-2.587213,0.950307,0.043454\H,0,-3.400038,1.62668,-0.228849
 \H,0,-2.204158,1.326175,1.000254\\Version=ES64L-G16RevB.01\HF=-466.800
 0307\S2=0.\S2-1=0.\S2A=0.\RMSD=3.708e-09\Dipole=0.0005724,-0.002483,-0
 .0013763\Quadrupole=0.8836398,2.3537049,-3.2373448,-2.5300275,-2.56266
 39,-1.216342\PG=CI [X(C12H16)]\\@


 THE MOST BEAUTIFUL EXPERIENCE WE CAN HAVE IS THE MYSTERIOUS.
 IT IS THE FUNDAMENTAL EMOTION WHICH STANDS AT AT THE CRADLE 
 OF TRUE ART AND TRUE SCIENCE.

                                    -- ALBERT EINSTEIN
 Job cpu time:       0 days  2 hours 14 minutes 19.7 seconds.
 Elapsed time:       0 days  0 hours  5 minutes 38.9 seconds.
 File lengths (MBytes):  RWF=    601 Int=      0 D2E=      0 Chk=     24 Scr=      1
 Normal termination of Gaussian 16 at Tue Aug  4 07:18:00 2020.
