 Entering Gaussian System, Link 0=g16
 Input=meso-TS_28_1_xp-Ger.com
 Output=meso-TS_28_1_xp-Ger.log
 Initial command:
 /scratch/scicomp/CentOS/7.3.1611/Haswell/software/Gaussian/g16/l1.exe "/scratch/bochen/cyclohexadiene-dimerization/wb97xd-def2tzvp/xp-pcm/meso/Gau-37394.inp" -scrdir="/scratch/bochen/cyclohexadiene-dimerization/wb97xd-def2tzvp/xp-pcm/meso/"
 Entering Link 1 = /scratch/scicomp/CentOS/7.3.1611/Haswell/software/Gaussian/g16/l1.exe PID=     37396.
  
 Copyright (c) 1988-2017, Gaussian, Inc.  All Rights Reserved.
  
 This is part of the Gaussian(R) 16 program.  It is based on
 the Gaussian(R) 09 system (copyright 2009, Gaussian, Inc.),
 the Gaussian(R) 03 system (copyright 2003, Gaussian, Inc.),
 the Gaussian(R) 98 system (copyright 1998, Gaussian, Inc.),
 the Gaussian(R) 94 system (copyright 1995, Gaussian, Inc.),
 the Gaussian 92(TM) system (copyright 1992, Gaussian, Inc.),
 the Gaussian 90(TM) system (copyright 1990, Gaussian, Inc.),
 the Gaussian 88(TM) system (copyright 1988, Gaussian, Inc.),
 the Gaussian 86(TM) system (copyright 1986, Carnegie Mellon
 University), and the Gaussian 82(TM) system (copyright 1983,
 Carnegie Mellon University). Gaussian is a federally registered
 trademark of Gaussian, Inc.
  
 This software contains proprietary and confidential information,
 including trade secrets, belonging to Gaussian, Inc.
  
 This software is provided under written license and may be
 used, copied, transmitted, or stored only in accord with that
 written license.
  
 The following legend is applicable only to US Government
 contracts under FAR:
  
                    RESTRICTED RIGHTS LEGEND
  
 Use, reproduction and disclosure by the US Government is
 subject to restrictions as set forth in subparagraphs (a)
 and (c) of the Commercial Computer Software - Restricted
 Rights clause in FAR 52.227-19.
  
 Gaussian, Inc.
 340 Quinnipiac St., Bldg. 40, Wallingford CT 06492
  
  
 ---------------------------------------------------------------
 Warning -- This program may not be used in any manner that
 competes with the business of Gaussian, Inc. or will provide
 assistance to any competitor of Gaussian, Inc.  The licensee
 of this program is prohibited from giving any competitor of
 Gaussian, Inc. access to this program.  By using this program,
 the user acknowledges that Gaussian, Inc. is engaged in the
 business of creating and licensing software in the field of
 computational chemistry and represents and warrants to the
 licensee that it is not a competitor of Gaussian, Inc. and that
 it will not use this program in any manner prohibited above.
 ---------------------------------------------------------------
  

 Cite this work as:
 Gaussian 16, Revision B.01,
 M. J. Frisch, G. W. Trucks, H. B. Schlegel, G. E. Scuseria, 
 M. A. Robb, J. R. Cheeseman, G. Scalmani, V. Barone, 
 G. A. Petersson, H. Nakatsuji, X. Li, M. Caricato, A. V. Marenich, 
 J. Bloino, B. G. Janesko, R. Gomperts, B. Mennucci, H. P. Hratchian, 
 J. V. Ortiz, A. F. Izmaylov, J. L. Sonnenberg, D. Williams-Young, 
 F. Ding, F. Lipparini, F. Egidi, J. Goings, B. Peng, A. Petrone, 
 T. Henderson, D. Ranasinghe, V. G. Zakrzewski, J. Gao, N. Rega, 
 G. Zheng, W. Liang, M. Hada, M. Ehara, K. Toyota, R. Fukuda, 
 J. Hasegawa, M. Ishida, T. Nakajima, Y. Honda, O. Kitao, H. Nakai, 
 T. Vreven, K. Throssell, J. A. Montgomery, Jr., J. E. Peralta, 
 F. Ogliaro, M. J. Bearpark, J. J. Heyd, E. N. Brothers, K. N. Kudin, 
 V. N. Staroverov, T. A. Keith, R. Kobayashi, J. Normand, 
 K. Raghavachari, A. P. Rendell, J. C. Burant, S. S. Iyengar, 
 J. Tomasi, M. Cossi, J. M. Millam, M. Klene, C. Adamo, R. Cammi, 
 J. W. Ochterski, R. L. Martin, K. Morokuma, O. Farkas, 
 J. B. Foresman, and D. J. Fox, Gaussian, Inc., Wallingford CT, 2016.
 
 ******************************************
 Gaussian 16:  ES64L-G16RevB.01 20-Dec-2017
                 4-Aug-2020 
 ******************************************
 %chk=meso-TS_28_1_xp-12.chk
 %nproc=24
 Will use up to   24 processors via shared memory.
 %mem=48GB
 ----------------------------------------------------------------------
 #p uwb97xd guess=mix def2tzvp # scrf=(iefpcm,solvent=Cyclohexane,read)
  nosym 6d 10f
 ----------------------------------------------------------------------
 1/38=1,40=2,172=1/1;
 2/12=2,15=1,17=6,18=5,40=1/2;
 3/5=44,7=101,8=22,11=2,25=1,30=1,70=2203,72=17,74=-58,116=2/1,2,3;
 4/13=-1/1;
 5/5=2,38=5,53=17/2;
 6/7=2,8=2,9=2,10=2,28=1/1;
 99/5=1,9=1/99;
 Leave Link    1 at Tue Aug  4 20:23:54 2020, MaxMem=  6442450944 cpu:               2.6 elap:               0.1
 (Enter /scratch/scicomp/CentOS/7.3.1611/Haswell/software/Gaussian/g16/l101.exe)
 -----------------------
 endo-2 xp-pcm for eta=3
 -----------------------
 Symbolic Z-matrix:
 Charge =  0 Multiplicity = 1
 6                    -3.13093  -0.42393   0.23061 
 6                    -0.40267  -0.12519  -0.66171 
 1                    -4.12172  -0.5441    0.65102 
 1                     0.32493  -0.12603  -1.47787 
 6                     1.1047    1.44386   0.61466 
 6                     0.40267   0.12519   0.66171 
 1                     0.57031   2.34209   0.89702 
 1                    -0.32493   0.12603   1.47787 
 6                     1.42607  -0.98372   0.93657 
 1                     1.82768  -0.8303    1.94152 
 1                     0.94004  -1.96043   0.93466 
 6                     2.40205   1.5339    0.1426 
 1                     2.86056   2.51289   0.05474 
 6                     3.13093   0.42393  -0.23061 
 1                     4.12172   0.5441   -0.65102 
 6                     2.58456  -0.95794  -0.06035 
 1                     2.25812  -1.34829  -1.03374 
 1                     3.377    -1.63473   0.27045 
 6                    -1.1047   -1.44386  -0.61466 
 1                    -0.57031  -2.34209  -0.89702 
 6                    -2.40205  -1.5339   -0.1426 
 1                    -2.86056  -2.51289  -0.05474 
 6                    -1.42607   0.98372  -0.93657 
 1                    -0.94004   1.96043  -0.93466 
 1                    -1.82768   0.8303   -1.94152 
 6                    -2.58456   0.95794   0.06035 
 1                    -3.377     1.63473  -0.27045 
 1                    -2.25812   1.34829   1.03374 
 
 ITRead=  0  0  0  0  0  0  0  0  0  0  0  0  0  0  0  0  0  0  0  0
 ITRead=  0  0  0  0  0  0  0  0
 MicOpt= -1 -1 -1 -1 -1 -1 -1 -1 -1 -1 -1 -1 -1 -1 -1 -1 -1 -1 -1 -1
 MicOpt= -1 -1 -1 -1 -1 -1 -1 -1
 NAtoms=     28 NQM=       28 NQMF=       0 NMMI=      0 NMMIF=      0
                NMic=       0 NMicF=      0.
                    Isotopes and Nuclear Properties:
 (Nuclear quadrupole moments (NQMom) in fm**2, nuclear magnetic moments (NMagM)
  in nuclear magnetons)

  Atom         1           2           3           4           5           6           7           8           9          10
 IAtWgt=          12          12           1           1          12          12           1           1          12           1
 AtmWgt=  12.0000000  12.0000000   1.0078250   1.0078250  12.0000000  12.0000000   1.0078250   1.0078250  12.0000000   1.0078250
 NucSpn=           0           0           1           1           0           0           1           1           0           1
 AtZEff=  -0.0000000  -0.0000000  -0.0000000  -0.0000000  -0.0000000  -0.0000000  -0.0000000  -0.0000000  -0.0000000  -0.0000000
 NQMom=    0.0000000   0.0000000   0.0000000   0.0000000   0.0000000   0.0000000   0.0000000   0.0000000   0.0000000   0.0000000
 NMagM=    0.0000000   0.0000000   2.7928460   2.7928460   0.0000000   0.0000000   2.7928460   2.7928460   0.0000000   2.7928460
 AtZNuc=   6.0000000   6.0000000   1.0000000   1.0000000   6.0000000   6.0000000   1.0000000   1.0000000   6.0000000   1.0000000

  Atom        11          12          13          14          15          16          17          18          19          20
 IAtWgt=           1          12           1          12           1          12           1           1          12           1
 AtmWgt=   1.0078250  12.0000000   1.0078250  12.0000000   1.0078250  12.0000000   1.0078250   1.0078250  12.0000000   1.0078250
 NucSpn=           1           0           1           0           1           0           1           1           0           1
 AtZEff=  -0.0000000  -0.0000000  -0.0000000  -0.0000000  -0.0000000  -0.0000000  -0.0000000  -0.0000000  -0.0000000  -0.0000000
 NQMom=    0.0000000   0.0000000   0.0000000   0.0000000   0.0000000   0.0000000   0.0000000   0.0000000   0.0000000   0.0000000
 NMagM=    2.7928460   0.0000000   2.7928460   0.0000000   2.7928460   0.0000000   2.7928460   2.7928460   0.0000000   2.7928460
 AtZNuc=   1.0000000   6.0000000   1.0000000   6.0000000   1.0000000   6.0000000   1.0000000   1.0000000   6.0000000   1.0000000

  Atom        21          22          23          24          25          26          27          28
 IAtWgt=          12           1          12           1           1          12           1           1
 AtmWgt=  12.0000000   1.0078250  12.0000000   1.0078250   1.0078250  12.0000000   1.0078250   1.0078250
 NucSpn=           0           1           0           1           1           0           1           1
 AtZEff=  -0.0000000  -0.0000000  -0.0000000  -0.0000000  -0.0000000  -0.0000000  -0.0000000  -0.0000000
 NQMom=    0.0000000   0.0000000   0.0000000   0.0000000   0.0000000   0.0000000   0.0000000   0.0000000
 NMagM=    0.0000000   2.7928460   0.0000000   2.7928460   2.7928460   0.0000000   2.7928460   2.7928460
 AtZNuc=   6.0000000   1.0000000   6.0000000   1.0000000   1.0000000   6.0000000   1.0000000   1.0000000
 Leave Link  101 at Tue Aug  4 20:23:54 2020, MaxMem=  6442450944 cpu:               2.4 elap:               0.1
 (Enter /scratch/scicomp/CentOS/7.3.1611/Haswell/software/Gaussian/g16/l202.exe)
                          Input orientation:                          
 ---------------------------------------------------------------------
 Center     Atomic      Atomic             Coordinates (Angstroms)
 Number     Number       Type             X           Y           Z
 ---------------------------------------------------------------------
      1          6           0       -3.130926   -0.423925    0.230614
      2          6           0       -0.402668   -0.125188   -0.661714
      3          1           0       -4.121721   -0.544101    0.651020
      4          1           0        0.324925   -0.126026   -1.477873
      5          6           0        1.104701    1.443859    0.614659
      6          6           0        0.402668    0.125188    0.661714
      7          1           0        0.570306    2.342088    0.897018
      8          1           0       -0.324925    0.126026    1.477873
      9          6           0        1.426074   -0.983719    0.936566
     10          1           0        1.827679   -0.830304    1.941515
     11          1           0        0.940037   -1.960429    0.934664
     12          6           0        2.402045    1.533898    0.142597
     13          1           0        2.860563    2.512891    0.054740
     14          6           0        3.130926    0.423925   -0.230614
     15          1           0        4.121721    0.544101   -0.651020
     16          6           0        2.584558   -0.957939   -0.060346
     17          1           0        2.258123   -1.348285   -1.033742
     18          1           0        3.376997   -1.634728    0.270453
     19          6           0       -1.104701   -1.443859   -0.614659
     20          1           0       -0.570306   -2.342088   -0.897018
     21          6           0       -2.402045   -1.533898   -0.142597
     22          1           0       -2.860563   -2.512891   -0.054740
     23          6           0       -1.426074    0.983719   -0.936566
     24          1           0       -0.940037    1.960429   -0.934664
     25          1           0       -1.827679    0.830304   -1.941515
     26          6           0       -2.584558    0.957939    0.060346
     27          1           0       -3.376997    1.634728   -0.270453
     28          1           0       -2.258122    1.348285    1.033742
 ---------------------------------------------------------------------
                    Distance matrix (angstroms):
                    1          2          3          4          5
     1  C    0.000000
     2  C    2.885981   0.000000
     3  H    1.082986   3.966121   0.000000
     4  H    3.866598   1.093393   4.947690   0.000000
     5  C    4.645067   2.522538   5.591851   2.729703   0.000000
     6  C    3.601897   1.569304   4.573637   2.155687   1.494643
     7  H    4.668409   3.076325   5.514138   3.433934   1.082645
     8  H    3.119574   2.155687   3.943148   3.036819   2.127358
     9  C    4.645211   2.576019   5.572507   2.788850   2.469826
    10  H    5.261187   3.499777   6.094477   3.800854   2.730396
    11  H    4.407865   2.778379   5.263823   3.092528   3.423258
    12  C    5.869803   3.356471   6.865573   3.113792   1.383492
    13  H    6.674860   4.256929   7.645459   3.967650   2.130584
    14  C    6.335801   3.601897   7.369887   3.119574   2.420814
    15  H    7.369887   4.573637   8.416283   3.943148   3.393216
    16  C    5.747746   3.158898   6.756588   2.794173   2.900731
    17  H    5.612031   2.951979   6.647371   2.329898   3.441464
    18  H    6.619720   4.175346   7.587165   3.827267   3.841810
    19  C    2.420814   1.494643   3.393216   2.127358   3.838176
    20  H    3.392297   2.235647   4.271034   2.459626   4.407291
    21  C    1.379346   2.500291   2.137010   3.346854   4.662375
    22  H    2.125630   3.480056   2.442284   4.227265   5.641568
    23  C    2.500058   1.533812   3.481548   2.142556   3.003806
    24  H    3.441368   2.170960   4.348583   2.499700   2.616907
    25  H    2.826604   2.140447   3.724628   2.400674   3.938188
    26  C    1.495680   2.540704   2.228876   3.464995   3.762182
    27  H    2.132996   3.478077   2.480125   4.273446   4.572250
    28  H    2.132494   2.913486   2.683394   3.892805   3.390183
                    6          7          8          9         10
     6  C    0.000000
     7  H    2.235647   0.000000
     8  H    1.093393   2.459626   0.000000
     9  C    1.533812   3.434370   2.142556   0.000000
    10  H    2.140447   3.568758   2.400674   1.093044   0.000000
    11  H    2.170960   4.318538   2.499700   1.090962   1.754662
    12  C    2.500291   2.139530   3.346854   2.814481   3.025798
    13  H    3.480056   2.446198   4.227265   3.880935   3.975390
    14  C    2.885981   3.392297   3.866598   2.500058   2.826604
    15  H    3.966121   4.271034   4.947690   3.481548   3.724628
    16  C    2.540704   3.982956   3.464995   1.528589   2.143969
    17  H    2.913487   4.493931   3.892806   2.169638   3.050531
    18  H    3.478077   4.907664   4.273446   2.161856   2.416595
    19  C    2.522538   4.407291   2.729703   3.003806   3.938188
    20  H    3.076325   5.144032   3.433934   3.031951   4.011620
    21  C    3.356471   4.993890   3.113792   4.015194   4.767508
    22  H    4.256929   6.020592   3.967650   4.657930   5.366167
    23  C    2.576019   3.031951   2.788850   3.938805   4.707541
    24  H    2.778379   2.404550   3.092528   4.215209   4.870405
    25  H    3.499777   4.011620   3.800854   4.707541   5.585444
    26  C    3.158898   3.545286   2.794173   4.541252   5.119028
    27  H    4.175346   4.176667   3.827267   5.602022   6.169103
    28  H    2.951978   3.001057   2.329897   4.361306   4.718482
                   11         12         13         14         15
    11  H    0.000000
    12  C    3.869775   0.000000
    13  H    4.947047   1.084613   0.000000
    14  C    3.441368   1.379346   2.125630   0.000000
    15  H    4.348583   2.137010   2.442284   1.082986   0.000000
    16  C    2.167829   2.506741   3.483688   1.495680   2.228876
    17  H    2.446772   3.116322   4.056650   2.132493   2.683393
    18  H    2.546769   3.317690   4.185210   2.132996   2.480125
    19  C    2.616907   4.662375   5.641568   4.645067   5.591851
    20  H    2.404550   4.993890   6.020592   4.668409   5.514138
    21  C    3.537221   5.707187   6.641573   5.869803   6.865573
    22  H    3.965942   6.641573   7.615888   6.674860   7.645459
    23  C    4.215209   4.015194   4.657930   4.645211   5.572507
    24  H    4.733095   3.537221   3.965942   4.407865   5.263823
    25  H    4.870405   4.767508   5.366167   5.261187   6.094477
    26  C    4.658763   5.020429   5.662795   5.747746   6.756588
    27  H    5.745802   5.794662   6.307462   6.619720   7.587165
    28  H    4.602785   4.748236   5.340008   5.612030   6.647370
                   16         17         18         19         20
    16  C    0.000000
    17  H    1.098376   0.000000
    18  H    1.093358   1.742083   0.000000
    19  C    3.762182   3.390184   4.572250   0.000000
    20  H    3.545286   3.001058   4.176667   1.082645   0.000000
    21  C    5.020429   4.748237   5.794662   1.383492   2.139530
    22  H    5.662795   5.340009   6.307462   2.130584   2.446198
    23  C    4.541252   4.361306   5.602022   2.469826   3.434370
    24  H    4.658763   4.602785   5.745802   3.423258   4.318538
    25  H    5.119028   4.718483   6.169103   2.730396   3.568758
    26  C    5.514065   5.474236   6.504322   2.900731   3.982956
    27  H    6.504322   6.421492   7.523188   3.841810   4.907664
    28  H    5.474235   5.651765   6.421491   3.441464   4.493930
                   21         22         23         24         25
    21  C    0.000000
    22  H    1.084613   0.000000
    23  C    2.814481   3.880935   0.000000
    24  H    3.869775   4.947047   1.090962   0.000000
    25  H    3.025798   3.975390   1.093044   1.754662   0.000000
    26  C    2.506741   3.483688   1.528589   2.167829   2.143969
    27  H    3.317690   4.185210   2.161856   2.546769   2.416595
    28  H    3.116323   4.056650   2.169637   2.446771   3.050531
                   26         27         28
    26  C    0.000000
    27  H    1.093358   0.000000
    28  H    1.098376   1.742084   0.000000
 Symmetry turned off by external request.
 Stoichiometry    C12H16
 Framework group  CI[X(C12H16)]
 Deg. of freedom    39
 Full point group                 CI      NOp   2
 Rotational constants (GHZ):           2.0274357           0.6492368           0.5545682
 Leave Link  202 at Tue Aug  4 20:23:54 2020, MaxMem=  6442450944 cpu:               0.3 elap:               0.0
 (Enter /scratch/scicomp/CentOS/7.3.1611/Haswell/software/Gaussian/g16/l301.exe)
 Standard basis: def2TZVP (6D, 10F)
 Ernie: Thresh=  0.10000D-02 Tol=  0.10000D-05 Strict=F.
   528 basis functions,   740 primitive gaussians,   528 cartesian basis functions
    44 alpha electrons       44 beta electrons
       nuclear repulsion energy       697.6336556829 Hartrees.
 IExCor= 4639 DFT=T Ex+Corr=wB97XD ExCW=0 ScaHFX=  1.000000
 ScaDFX=  1.000000  1.000000  1.000000  1.000000 ScalE2=  1.000000  1.000000
 IRadAn=      5 IRanWt=     -1 IRanGd=            0 ICorTp=0 IEmpDi=121
 HFx  wShort=  0.000000 wLong=  0.200000 cFull=  0.222036 cShort=  0.000000 cLong=  0.777964
 DFx  wShort=  0.000000 wLong=  0.200000 cFull=  0.000000 cShort=  0.000000 cLong=  1.000000
 NAtoms=   28 NActive=   28 NUniq=   28 SFac= 1.00D+00 NAtFMM=   60 NAOKFM=F Big=F
 Integral buffers will be    131072 words long.
 Raffenetti 2 integral format.
 Two-electron integral symmetry is turned off.
 R6Disp:  Grimme-D2 Dispersion energy=       -0.0228815295 Hartrees.
 Nuclear repulsion after empirical dispersion term =      697.6107741534 Hartrees.
 Using the following non-standard input for PCM:
 qrep pcmdoc geomview  nodis nocav g03defaults tsare=0.075
 Warning! Using old PCM defaults because the g03defaults keyword was found.
 These settings can be overridden by following keywords.
 nsfe=28
 NVESolv=36  SolvMW=84.1595   Rsolv=2.815
 eps=2.0165 RhoS=0.778099999999998
 --- end of non-standard input.
 Reading user-defined spheres from input:
 ISph  on   Nord    Re0     Alpha      Xe            Ye            Ze
 --- end of user-defined spheres data.
 ------------------------------------------------------------------------------
 Polarizable Continuum Model (PCM)
 =================================
 Model                : PCM.
 Atomic radii         : UA0 (Simple United Atom Topological Model).
 Polarization charges : Total charges.
 Charge compensation  : None.
 Solution method      : On-the-fly selection.
 Cavity type          : SES (Solvent Excluding Surface) (Alpha=1.000).
 Cavity algorithm     : GePol (RMin=0.200 OFac=0.890).
                        User-defined sphere list used, NSphG=   28.
                        Tesserae with average area of 0.075 Ang**2.
                        Smoothing algorithm: None.
                        Polarization charges: point-like.
                        Self-potential: constant (ISelfS= 1).
                        Self-field    : global E.n sum rule (ISelfD= 3).
 Solvent              : CycloHexane, Eps=   2.016500 Eps(inf)=   2.035188
                        RSolv=   2.815000 Ang.
 ------------------------------------------------------------------------------
 GePol: Number of generator spheres                  =      28
 GePol: Total number of spheres                      =     159
 GePol: Number of exposed spheres                    =     116 ( 72.96%)
 GePol: Number of tesserae                           =    4590
 GePol: Average area of tesserae                     =       0.05 Ang**2
 GePol: Minimum area of tessera                      =   0.10D-02 Ang**2
 GePol: Maximum area of tessera                      =    0.12395 Ang**2
 GePol: Number of small tesserae                     =       0
 GePol: Fraction of small tesserae (<1% of avg)      =       0.00%
 GePol: Total count of vertices                      =   16199
 GePol: Maximum number of vertices in a tessera      =       7
 GePol: Cavity surface area                          =    218.134 Ang**2
 GePol: Cavity volume                                =    243.088 Ang**3
 Leave Link  301 at Tue Aug  4 20:23:55 2020, MaxMem=  6442450944 cpu:               7.0 elap:               0.3
 (Enter /scratch/scicomp/CentOS/7.3.1611/Haswell/software/Gaussian/g16/l302.exe)
 NPDir=0 NMtPBC=     1 NCelOv=     1 NCel=       1 NClECP=     1 NCelD=      1
         NCelK=      1 NCelE2=     1 NClLst=     1 CellRange=     0.0.
 One-electron integrals computed using PRISM.
   1 Symmetry operations used in ECPInt.
 ECPInt:  NShTT=   19306 NPrTT=   56928 LenC2=   18548 LenP2D=   42366.
 LDataN:  DoStor=T MaxTD1= 6 Len=  172
 NBasis=   528 RedAO= T EigKep=  2.40D-05  NBF=   528
 NBsUse=   528 1.00D-06 EigRej= -1.00D+00 NBFU=   528
 Precomputing XC quadrature grid using
 IXCGrd= 4 IRadAn=           5 IRanWt=          -1 IRanGd=           0 AccXCQ= 0.00D+00.
 Generated NRdTot=       0 NPtTot=           0 NUsed=           0 NTot=          32
 NSgBfM=   526   526   526   526   526 MxSgAt=    28 MxSgA2=    28.
 Leave Link  302 at Tue Aug  4 20:23:55 2020, MaxMem=  6442450944 cpu:              12.8 elap:               0.6
 (Enter /scratch/scicomp/CentOS/7.3.1611/Haswell/software/Gaussian/g16/l303.exe)
 DipDrv:  MaxL=1.
 Leave Link  303 at Tue Aug  4 20:23:55 2020, MaxMem=  6442450944 cpu:               1.5 elap:               0.1
 (Enter /scratch/scicomp/CentOS/7.3.1611/Haswell/software/Gaussian/g16/l401.exe)
 ExpMin= 9.52D-02 ExpMax= 1.36D+04 ExpMxC= 4.63D+02 IAcc=3 IRadAn=         5 AccDes= 0.00D+00
 Harris functional with IExCor= 4639 and IRadAn=       5 diagonalized for initial guess.
 HarFok:  IExCor= 4639 AccDes= 0.00D+00 IRadAn=         5 IDoV= 1 UseB2=F ITyADJ=14
 ICtDFT=  3500011 ScaDFX=  1.000000  1.000000  1.000000  1.000000
 FoFCou: FMM=F IPFlag=           0 FMFlag=      100000 FMFlg1=           0
         NFxFlg=           0 DoJE=T BraDBF=F KetDBF=T FulRan=T
         wScrn=  0.000000 ICntrl=       500 IOpCl=  0 I1Cent=   200000004 NGrid=           0
         NMat0=    1 NMatS0=      1 NMatT0=    0 NMatD0=    1 NMtDS0=    0 NMtDT0=    0
 Symmetry not used in FoFCou.
 Harris En= -444.598618547483    
 JPrj=0 DoOrth=F DoCkMO=T.
 Mixing orbitals, IMix= 1 IMixAn=  0 NRI=1 NE=   44 Coef=  7.07106781D-01  7.07106781D-01
 Mixing orbitals, IMix= 1 IMixAn=  0 NRI=1 NE=   44 Coef= -7.07106781D-01  7.07106781D-01
 Initial guess <Sx>= 0.0000 <Sy>= 0.0000 <Sz>= 0.0000 <S**2>= 1.0000 S= 0.6180
 Leave Link  401 at Tue Aug  4 20:23:58 2020, MaxMem=  6442450944 cpu:              49.8 elap:               2.1
 (Enter /scratch/scicomp/CentOS/7.3.1611/Haswell/software/Gaussian/g16/l502.exe)
 Two-electron integral symmetry not used.
 UHF open shell SCF:
 Using DIIS extrapolation, IDIIS=  1040.
 NGot=  6442450944 LenX=  6441877030 LenY=  6441597718
 Requested convergence on RMS density matrix=1.00D-08 within 128 cycles.
 Requested convergence on MAX density matrix=1.00D-06.
 Requested convergence on             energy=1.00D-06.
 No special actions if energy rises.
 Fock matrices will be formed incrementally for  20 cycles.

 Cycle   1  Pass 1  IDiag  1:
 FoFJK:  IHMeth= 1 ICntrl=       0 DoSepK=T KAlg= 0 I1Cent=           0 FoldK=F
 IRaf=         1 NMat=       1 IRICut=       1 DoRegI=T DoRafI=F ISym2E= 0 IDoP0=0 IntGTp=1.
 FoFCou: FMM=F IPFlag=           0 FMFlag=      100000 FMFlg1=           0
         NFxFlg=           0 DoJE=T BraDBF=F KetDBF=F FulRan=T
         wScrn=  0.000000 ICntrl=       500 IOpCl=  0 I1Cent=           0 NGrid=           0
         NMat0=    1 NMatS0=      1 NMatT0=    0 NMatD0=    1 NMtDS0=    0 NMtDT0=    0
 Symmetry not used in FoFCou.
 Inv3:  Mode=1 IEnd=    63204300.
 Iteration    1 A*A^-1 deviation from unit magnitude is 5.33D-15 for   2687.
 Iteration    1 A*A^-1 deviation from orthogonality  is 2.29D-15 for   3737   2805.
 Iteration    1 A^-1*A deviation from unit magnitude is 4.66D-15 for   2687.
 Iteration    1 A^-1*A deviation from orthogonality  is 2.11D-15 for   3458   3039.
 E= -466.684867528179    
 DIIS: error= 6.21D-02 at cycle   1 NSaved=   1.
 NSaved= 1 IEnMin= 1 EnMin= -466.684867528179     IErMin= 1 ErrMin= 6.21D-02
 ErrMax= 6.21D-02  0.00D+00 EMaxC= 1.00D-01 BMatC= 4.10D+00 BMatP= 4.10D+00
 IDIUse=3 WtCom= 3.79D-01 WtEn= 6.21D-01
 Coeff-Com:  0.100D+01
 Coeff-En:   0.100D+01
 Coeff:      0.100D+01
 Gap=     0.234 Goal=   None    Shift=    0.000
 Gap=     0.234 Goal=   None    Shift=    0.000
 GapD=    0.234 DampG=1.000 DampE=0.500 DampFc=0.5000 IDamp=-1.
 Damping current iteration by 5.00D-01
 RMSDP=1.45D-03 MaxDP=9.21D-02              OVMax= 4.91D-02

 Cycle   2  Pass 1  IDiag  1:
 RMSU=  7.10D-04    CP:  9.76D-01
 E= -466.754745857178     Delta-E=       -0.069878328999 Rises=F Damp=T
 DIIS: error= 2.94D-02 at cycle   2 NSaved=   2.
 NSaved= 2 IEnMin= 2 EnMin= -466.754745857178     IErMin= 2 ErrMin= 2.94D-02
 ErrMax= 2.94D-02  0.00D+00 EMaxC= 1.00D-01 BMatC= 9.19D-01 BMatP= 4.10D+00
 IDIUse=3 WtCom= 7.06D-01 WtEn= 2.94D-01
 Coeff-Com: -0.863D+00 0.186D+01
 Coeff-En:   0.000D+00 0.100D+01
 Coeff:     -0.609D+00 0.161D+01
 Gap=     0.242 Goal=   None    Shift=    0.000
 Gap=     0.242 Goal=   None    Shift=    0.000
 RMSDP=9.04D-04 MaxDP=4.90D-02 DE=-6.99D-02 OVMax= 3.22D-02

 Cycle   3  Pass 1  IDiag  1:
 RMSU=  4.39D-04    CP:  9.49D-01  2.09D+00
 E= -466.822791295412     Delta-E=       -0.068045438234 Rises=F Damp=F
 DIIS: error= 2.79D-03 at cycle   3 NSaved=   3.
 NSaved= 3 IEnMin= 3 EnMin= -466.822791295412     IErMin= 3 ErrMin= 2.79D-03
 ErrMax= 2.79D-03  0.00D+00 EMaxC= 1.00D-01 BMatC= 1.72D-02 BMatP= 9.19D-01
 IDIUse=3 WtCom= 9.72D-01 WtEn= 2.79D-02
 Coeff-Com: -0.306D+00 0.663D+00 0.644D+00
 Coeff-En:   0.000D+00 0.000D+00 0.100D+01
 Coeff:     -0.298D+00 0.644D+00 0.654D+00
 Gap=     0.246 Goal=   None    Shift=    0.000
 Gap=     0.246 Goal=   None    Shift=    0.000
 RMSDP=1.09D-04 MaxDP=4.59D-03 DE=-6.80D-02 OVMax= 1.27D-02

 Cycle   4  Pass 1  IDiag  1:
 RMSU=  8.71D-05    CP:  9.47D-01  2.15D+00  9.00D-01
 E= -466.827207763874     Delta-E=       -0.004416468462 Rises=F Damp=F
 DIIS: error= 9.92D-04 at cycle   4 NSaved=   4.
 NSaved= 4 IEnMin= 4 EnMin= -466.827207763874     IErMin= 4 ErrMin= 9.92D-04
 ErrMax= 9.92D-04  0.00D+00 EMaxC= 1.00D-01 BMatC= 5.76D-04 BMatP= 1.72D-02
 IDIUse=3 WtCom= 9.90D-01 WtEn= 9.92D-03
 Coeff-Com:  0.100D+00-0.217D+00-0.114D+00 0.123D+01
 Coeff-En:   0.000D+00 0.000D+00 0.000D+00 0.100D+01
 Coeff:      0.994D-01-0.214D+00-0.113D+00 0.123D+01
 Gap=     0.251 Goal=   None    Shift=    0.000
 Gap=     0.251 Goal=   None    Shift=    0.000
 RMSDP=7.91D-05 MaxDP=4.93D-03 DE=-4.42D-03 OVMax= 1.19D-02

 Cycle   5  Pass 1  IDiag  1:
 RMSU=  3.36D-05    CP:  9.46D-01  2.19D+00  1.02D+00  1.40D+00
 E= -466.827833490496     Delta-E=       -0.000625726622 Rises=F Damp=F
 DIIS: error= 5.06D-04 at cycle   5 NSaved=   5.
 NSaved= 5 IEnMin= 5 EnMin= -466.827833490496     IErMin= 5 ErrMin= 5.06D-04
 ErrMax= 5.06D-04  0.00D+00 EMaxC= 1.00D-01 BMatC= 1.80D-04 BMatP= 5.76D-04
 IDIUse=3 WtCom= 9.95D-01 WtEn= 5.06D-03
 Coeff-Com:  0.643D-01-0.139D+00-0.111D+00 0.293D+00 0.892D+00
 Coeff-En:   0.000D+00 0.000D+00 0.000D+00 0.000D+00 0.100D+01
 Coeff:      0.640D-01-0.139D+00-0.110D+00 0.292D+00 0.893D+00
 Gap=     0.253 Goal=   None    Shift=    0.000
 Gap=     0.253 Goal=   None    Shift=    0.000
 RMSDP=2.66D-05 MaxDP=1.58D-03 DE=-6.26D-04 OVMax= 6.52D-03

 Cycle   6  Pass 1  IDiag  1:
 RMSU=  1.74D-05    CP:  9.46D-01  2.20D+00  1.04D+00  1.56D+00  1.32D+00
 E= -466.827984962797     Delta-E=       -0.000151472301 Rises=F Damp=F
 DIIS: error= 2.85D-04 at cycle   6 NSaved=   6.
 NSaved= 6 IEnMin= 6 EnMin= -466.827984962797     IErMin= 6 ErrMin= 2.85D-04
 ErrMax= 2.85D-04  0.00D+00 EMaxC= 1.00D-01 BMatC= 5.79D-05 BMatP= 1.80D-04
 IDIUse=3 WtCom= 9.97D-01 WtEn= 2.85D-03
 Coeff-Com: -0.223D-01 0.479D-01 0.139D-01-0.431D+00 0.308D+00 0.108D+01
 Coeff-En:   0.000D+00 0.000D+00 0.000D+00 0.000D+00 0.000D+00 0.100D+01
 Coeff:     -0.222D-01 0.478D-01 0.139D-01-0.430D+00 0.308D+00 0.108D+01
 Gap=     0.255 Goal=   None    Shift=    0.000
 Gap=     0.255 Goal=   None    Shift=    0.000
 RMSDP=1.99D-05 MaxDP=1.28D-03 DE=-1.51D-04 OVMax= 5.13D-03

 Cycle   7  Pass 1  IDiag  1:
 RMSU=  9.09D-06    CP:  9.45D-01  2.20D+00  1.05D+00  1.65D+00  1.75D+00
                    CP:  1.26D+00
 E= -466.828041074350     Delta-E=       -0.000056111553 Rises=F Damp=F
 DIIS: error= 5.95D-05 at cycle   7 NSaved=   7.
 NSaved= 7 IEnMin= 7 EnMin= -466.828041074350     IErMin= 7 ErrMin= 5.95D-05
 ErrMax= 5.95D-05  0.00D+00 EMaxC= 1.00D-01 BMatC= 3.24D-06 BMatP= 5.79D-05
 IDIUse=1 WtCom= 1.00D+00 WtEn= 0.00D+00
 Coeff-Com: -0.105D-01 0.228D-01 0.128D-01-0.111D+00-0.268D-01 0.206D+00
 Coeff-Com:  0.907D+00
 Coeff:     -0.105D-01 0.228D-01 0.128D-01-0.111D+00-0.268D-01 0.206D+00
 Coeff:      0.907D+00
 Gap=     0.255 Goal=   None    Shift=    0.000
 Gap=     0.255 Goal=   None    Shift=    0.000
 RMSDP=5.02D-06 MaxDP=3.04D-04 DE=-5.61D-05 OVMax= 1.16D-03

 Cycle   8  Pass 1  IDiag  1:
 RMSU=  2.23D-06    CP:  9.45D-01  2.20D+00  1.05D+00  1.65D+00  1.81D+00
                    CP:  1.40D+00  1.24D+00
 E= -466.828043743908     Delta-E=       -0.000002669557 Rises=F Damp=F
 DIIS: error= 2.62D-05 at cycle   8 NSaved=   8.
 NSaved= 8 IEnMin= 8 EnMin= -466.828043743908     IErMin= 8 ErrMin= 2.62D-05
 ErrMax= 2.62D-05  0.00D+00 EMaxC= 1.00D-01 BMatC= 5.41D-07 BMatP= 3.24D-06
 IDIUse=1 WtCom= 1.00D+00 WtEn= 0.00D+00
 Coeff-Com:  0.177D-03-0.357D-03 0.161D-02 0.303D-01-0.503D-01-0.973D-01
 Coeff-Com:  0.235D+00 0.881D+00
 Coeff:      0.177D-03-0.357D-03 0.161D-02 0.303D-01-0.503D-01-0.973D-01
 Coeff:      0.235D+00 0.881D+00
 Gap=     0.255 Goal=   None    Shift=    0.000
 Gap=     0.255 Goal=   None    Shift=    0.000
 RMSDP=2.09D-06 MaxDP=1.35D-04 DE=-2.67D-06 OVMax= 3.66D-04

 Cycle   9  Pass 1  IDiag  1:
 RMSU=  9.26D-07    CP:  9.45D-01  2.20D+00  1.05D+00  1.64D+00  1.81D+00
                    CP:  1.43D+00  1.38D+00  1.31D+00
 E= -466.828044089660     Delta-E=       -0.000000345752 Rises=F Damp=F
 DIIS: error= 1.07D-05 at cycle   9 NSaved=   9.
 NSaved= 9 IEnMin= 9 EnMin= -466.828044089660     IErMin= 9 ErrMin= 1.07D-05
 ErrMax= 1.07D-05  0.00D+00 EMaxC= 1.00D-01 BMatC= 5.63D-08 BMatP= 5.41D-07
 IDIUse=1 WtCom= 1.00D+00 WtEn= 0.00D+00
 Coeff-Com:  0.142D-02-0.309D-02-0.129D-02 0.213D-01-0.790D-02-0.496D-01
 Coeff-Com: -0.617D-01 0.209D+00 0.892D+00
 Coeff:      0.142D-02-0.309D-02-0.129D-02 0.213D-01-0.790D-02-0.496D-01
 Coeff:     -0.617D-01 0.209D+00 0.892D+00
 Gap=     0.255 Goal=   None    Shift=    0.000
 Gap=     0.255 Goal=   None    Shift=    0.000
 RMSDP=7.82D-07 MaxDP=4.24D-05 DE=-3.46D-07 OVMax= 1.55D-04

 Cycle  10  Pass 1  IDiag  1:
 RMSU=  3.18D-07    CP:  9.45D-01  2.20D+00  1.05D+00  1.64D+00  1.81D+00
                    CP:  1.43D+00  1.42D+00  1.49D+00  1.31D+00
 E= -466.828044129709     Delta-E=       -0.000000040049 Rises=F Damp=F
 DIIS: error= 3.30D-06 at cycle  10 NSaved=  10.
 NSaved=10 IEnMin=10 EnMin= -466.828044129709     IErMin=10 ErrMin= 3.30D-06
 ErrMax= 3.30D-06  0.00D+00 EMaxC= 1.00D-01 BMatC= 4.40D-09 BMatP= 5.63D-08
 IDIUse=1 WtCom= 1.00D+00 WtEn= 0.00D+00
 Coeff-Com: -0.772D-04 0.169D-03-0.107D-03-0.371D-02 0.461D-02 0.111D-01
 Coeff-Com: -0.168D-01-0.873D-01-0.398D-01 0.113D+01
 Coeff:     -0.772D-04 0.169D-03-0.107D-03-0.371D-02 0.461D-02 0.111D-01
 Coeff:     -0.168D-01-0.873D-01-0.398D-01 0.113D+01
 Gap=     0.255 Goal=   None    Shift=    0.000
 Gap=     0.255 Goal=   None    Shift=    0.000
 RMSDP=3.12D-07 MaxDP=2.42D-05 DE=-4.00D-08 OVMax= 6.02D-05

 Cycle  11  Pass 1  IDiag  1:
 RMSU=  1.07D-07    CP:  9.45D-01  2.20D+00  1.05D+00  1.64D+00  1.81D+00
                    CP:  1.43D+00  1.43D+00  1.56D+00  1.49D+00  1.39D+00
 E= -466.828044134158     Delta-E=       -0.000000004450 Rises=F Damp=F
 DIIS: error= 6.63D-07 at cycle  11 NSaved=  11.
 NSaved=11 IEnMin=11 EnMin= -466.828044134158     IErMin=11 ErrMin= 6.63D-07
 ErrMax= 6.63D-07  0.00D+00 EMaxC= 1.00D-01 BMatC= 1.14D-09 BMatP= 4.40D-09
 IDIUse=1 WtCom= 1.00D+00 WtEn= 0.00D+00
 Coeff-Com: -0.222D-03 0.480D-03 0.137D-03-0.416D-02 0.266D-02 0.107D-01
 Coeff-Com:  0.184D-02-0.591D-01-0.129D+00 0.404D+00 0.773D+00
 Coeff:     -0.222D-03 0.480D-03 0.137D-03-0.416D-02 0.266D-02 0.107D-01
 Coeff:      0.184D-02-0.591D-01-0.129D+00 0.404D+00 0.773D+00
 Gap=     0.255 Goal=   None    Shift=    0.000
 Gap=     0.255 Goal=   None    Shift=    0.000
 RMSDP=9.31D-08 MaxDP=6.92D-06 DE=-4.45D-09 OVMax= 1.60D-05

 Cycle  12  Pass 1  IDiag  1:
 RMSU=  3.85D-08    CP:  9.45D-01  2.20D+00  1.05D+00  1.64D+00  1.81D+00
                    CP:  1.43D+00  1.43D+00  1.57D+00  1.54D+00  1.51D+00
                    CP:  1.31D+00
 E= -466.828044134840     Delta-E=       -0.000000000682 Rises=F Damp=F
 DIIS: error= 3.07D-07 at cycle  12 NSaved=  12.
 NSaved=12 IEnMin=12 EnMin= -466.828044134840     IErMin=12 ErrMin= 3.07D-07
 ErrMax= 3.07D-07  0.00D+00 EMaxC= 1.00D-01 BMatC= 1.26D-10 BMatP= 1.14D-09
 IDIUse=1 WtCom= 1.00D+00 WtEn= 0.00D+00
 Coeff-Com:  0.299D-04-0.652D-04-0.578D-05 0.794D-03-0.807D-03-0.208D-02
 Coeff-Com:  0.194D-02 0.150D-01 0.152D-01-0.177D+00-0.307D-01 0.118D+01
 Coeff:      0.299D-04-0.652D-04-0.578D-05 0.794D-03-0.807D-03-0.208D-02
 Coeff:      0.194D-02 0.150D-01 0.152D-01-0.177D+00-0.307D-01 0.118D+01
 Gap=     0.255 Goal=   None    Shift=    0.000
 Gap=     0.255 Goal=   None    Shift=    0.000
 RMSDP=4.62D-08 MaxDP=2.38D-06 DE=-6.82D-10 OVMax= 9.08D-06

 Cycle  13  Pass 1  IDiag  1:
 RMSU=  1.86D-08    CP:  9.45D-01  2.20D+00  1.05D+00  1.64D+00  1.81D+00
                    CP:  1.43D+00  1.43D+00  1.57D+00  1.54D+00  1.56D+00
                    CP:  1.62D+00  1.47D+00
 E= -466.828044135029     Delta-E=       -0.000000000189 Rises=F Damp=F
 DIIS: error= 1.97D-07 at cycle  13 NSaved=  13.
 NSaved=13 IEnMin=13 EnMin= -466.828044135029     IErMin=13 ErrMin= 1.97D-07
 ErrMax= 1.97D-07  0.00D+00 EMaxC= 1.00D-01 BMatC= 3.13D-11 BMatP= 1.26D-10
 IDIUse=1 WtCom= 1.00D+00 WtEn= 0.00D+00
 Coeff-Com:  0.390D-04-0.844D-04-0.202D-04 0.763D-03-0.501D-03-0.200D-02
 Coeff-Com: -0.105D-03 0.109D-01 0.236D-01-0.819D-01-0.138D+00 0.470D-01
 Coeff-Com:  0.114D+01
 Coeff:      0.390D-04-0.844D-04-0.202D-04 0.763D-03-0.501D-03-0.200D-02
 Coeff:     -0.105D-03 0.109D-01 0.236D-01-0.819D-01-0.138D+00 0.470D-01
 Coeff:      0.114D+01
 Gap=     0.255 Goal=   None    Shift=    0.000
 Gap=     0.255 Goal=   None    Shift=    0.000
 RMSDP=2.21D-08 MaxDP=1.01D-06 DE=-1.89D-10 OVMax= 5.46D-06

 Cycle  14  Pass 1  IDiag  1:
 RMSU=  8.06D-09    CP:  9.45D-01  2.20D+00  1.05D+00  1.64D+00  1.81D+00
                    CP:  1.43D+00  1.43D+00  1.57D+00  1.54D+00  1.56D+00
                    CP:  1.73D+00  1.71D+00  1.63D+00
 E= -466.828044135091     Delta-E=       -0.000000000062 Rises=F Damp=F
 DIIS: error= 1.22D-07 at cycle  14 NSaved=  14.
 NSaved=14 IEnMin=14 EnMin= -466.828044135091     IErMin=14 ErrMin= 1.22D-07
 ErrMax= 1.22D-07  0.00D+00 EMaxC= 1.00D-01 BMatC= 1.11D-11 BMatP= 3.13D-11
 IDIUse=1 WtCom= 1.00D+00 WtEn= 0.00D+00
 Coeff-Com:  0.139D-05-0.278D-05-0.223D-05-0.269D-04 0.976D-04 0.407D-04
 Coeff-Com: -0.449D-03-0.142D-02 0.195D-02 0.262D-01-0.287D-01-0.314D+00
 Coeff-Com:  0.310D+00 0.101D+01
 Coeff:      0.139D-05-0.278D-05-0.223D-05-0.269D-04 0.976D-04 0.407D-04
 Coeff:     -0.449D-03-0.142D-02 0.195D-02 0.262D-01-0.287D-01-0.314D+00
 Coeff:      0.310D+00 0.101D+01
 Gap=     0.255 Goal=   None    Shift=    0.000
 Gap=     0.255 Goal=   None    Shift=    0.000
 RMSDP=1.21D-08 MaxDP=6.28D-07 DE=-6.20D-11 OVMax= 3.77D-06

 Cycle  15  Pass 1  IDiag  1:
 RMSU=  4.00D-09    CP:  9.45D-01  2.20D+00  1.05D+00  1.64D+00  1.81D+00
                    CP:  1.43D+00  1.43D+00  1.57D+00  1.54D+00  1.56D+00
                    CP:  1.76D+00  1.81D+00  2.07D+00  1.68D+00
 E= -466.828044135115     Delta-E=       -0.000000000023 Rises=F Damp=F
 DIIS: error= 5.44D-08 at cycle  15 NSaved=  15.
 NSaved=15 IEnMin=15 EnMin= -466.828044135115     IErMin=15 ErrMin= 5.44D-08
 ErrMax= 5.44D-08  0.00D+00 EMaxC= 1.00D-01 BMatC= 2.48D-12 BMatP= 1.11D-11
 IDIUse=1 WtCom= 1.00D+00 WtEn= 0.00D+00
 Coeff-Com: -0.126D-04 0.272D-04 0.604D-05-0.256D-03 0.193D-03 0.659D-03
 Coeff-Com: -0.592D-04-0.407D-02-0.740D-02 0.322D-01 0.419D-01-0.699D-01
 Coeff-Com: -0.336D+00 0.158D+00 0.119D+01
 Coeff:     -0.126D-04 0.272D-04 0.604D-05-0.256D-03 0.193D-03 0.659D-03
 Coeff:     -0.592D-04-0.407D-02-0.740D-02 0.322D-01 0.419D-01-0.699D-01
 Coeff:     -0.336D+00 0.158D+00 0.119D+01
 Gap=     0.255 Goal=   None    Shift=    0.000
 Gap=     0.255 Goal=   None    Shift=    0.000
 RMSDP=7.94D-09 MaxDP=3.61D-07 DE=-2.34D-11 OVMax= 2.47D-06

 Error on total polarization charges =  0.01108
 SCF Done:  E(UwB97XD) =  -466.828044135     A.U. after   15 cycles
            NFock= 15  Conv=0.79D-08     -V/T= 2.0058
 <Sx>= 0.0000 <Sy>= 0.0000 <Sz>= 0.0000 <S**2>= 1.0573 S= 0.6434
 <L.S>=  0.00000000000    
 KE= 4.641223394219D+02 PE=-2.477033567713D+03 EE= 8.484724100030D+02
 --------------------------------------------------------------------
 Variational PCM results
 =======================
 <psi(f)|   H    |psi(f)>                     (a.u.) =    -466.835809
 <psi(f)|H+V(f)/2|psi(f)>                     (a.u.) =    -466.837024
 Total free energy in solution:
 - with all non electrostatic terms           (a.u.) =    -466.828044
 --------------------------------------------------------------------
 (Polarized solute)-Solvent               (kcal/mol) =      -0.76
 --------------------------------------------------------------------
 Quantum repulsion energy                 (kcal/mol) =       5.63
 Total non electrostatic                  (kcal/mol) =       5.63
 --------------------------------------------------------------------
 Partition over spheres:
 Sphere  on Atom  Surface  Charge   GEl     GCav    GDR
    1               7.89   0.011   -0.04    0.00    0.00
    2               0.03  -0.000   -0.00    0.00    0.00
    3               7.51  -0.010   -0.04    0.00    0.00
    4               3.78  -0.004   -0.01    0.00    0.00
    5               4.11   0.007   -0.03    0.00    0.00
    6               0.06  -0.000    0.00    0.00    0.00
    7               5.49  -0.008   -0.03    0.00    0.00
    8               3.50  -0.003   -0.01    0.00    0.00
    9               3.44   0.003   -0.00    0.00    0.00
   10               6.19  -0.005   -0.01    0.00    0.00
   11               4.99  -0.004   -0.01    0.00    0.00
   12               7.07   0.012   -0.06    0.00    0.00
   13               7.51  -0.010   -0.03    0.00    0.00
   14               7.46   0.011   -0.04    0.00    0.00
   15               7.51  -0.010   -0.04    0.00    0.00
   16               3.62   0.002    0.00    0.00    0.00
   17               4.57  -0.005   -0.02    0.00    0.00
   18               7.61  -0.008   -0.03    0.00    0.00
   19               4.20   0.007   -0.03    0.00    0.00
   20               5.62  -0.008   -0.03    0.00    0.00
   21               7.03   0.012   -0.07    0.00    0.00
   22               7.51  -0.010   -0.03    0.00    0.00
   23               3.18   0.002   -0.00    0.00    0.00
   24               4.38  -0.004   -0.01    0.00    0.00
   25               6.34  -0.005   -0.00    0.00    0.00
   26               3.96   0.002    0.00    0.00    0.00
   27               7.53  -0.008   -0.03    0.00    0.00
   28               4.56  -0.005   -0.02    0.00    0.00
 Added spheres:    71.49   0.026   -0.17    0.00    0.00
 --------------------------------------------------------------------
 After PCM corrections, the energy is  -466.828044135     a.u.
 --------------------------------------------------------------------
 Annihilation of the first spin contaminant:
 S**2 before annihilation     1.0573,   after     0.5471
 Leave Link  502 at Tue Aug  4 20:28:45 2020, MaxMem=  6442450944 cpu:            6823.4 elap:             286.9
 (Enter /scratch/scicomp/CentOS/7.3.1611/Haswell/software/Gaussian/g16/l601.exe)
 Copying SCF densities to generalized density rwf, IOpCl= 1 IROHF=0.

 **********************************************************************

            Population analysis using the SCF Density.

 **********************************************************************

 Alpha  occ. eigenvalues --  -10.28815 -10.28693 -10.28642 -10.28354 -10.28205
 Alpha  occ. eigenvalues --  -10.28157 -10.27989 -10.27916 -10.27672 -10.27631
 Alpha  occ. eigenvalues --  -10.27545 -10.27527  -0.95480  -0.92536  -0.85939
 Alpha  occ. eigenvalues --   -0.84465  -0.83399  -0.80772  -0.71391  -0.70595
 Alpha  occ. eigenvalues --   -0.69014  -0.67384  -0.60062  -0.59206  -0.58597
 Alpha  occ. eigenvalues --   -0.56063  -0.53482  -0.52475  -0.50864  -0.48882
 Alpha  occ. eigenvalues --   -0.48861  -0.48488  -0.48163  -0.47252  -0.45702
 Alpha  occ. eigenvalues --   -0.44562  -0.41224  -0.40716  -0.39852  -0.38717
 Alpha  occ. eigenvalues --   -0.37575  -0.37249  -0.34567  -0.25122
 Alpha virt. eigenvalues --    0.00399   0.10931   0.11541   0.13284   0.14017
 Alpha virt. eigenvalues --    0.14782   0.15695   0.16380   0.17095   0.17310
 Alpha virt. eigenvalues --    0.17978   0.18201   0.19448   0.20994   0.21147
 Alpha virt. eigenvalues --    0.22261   0.22833   0.23392   0.24193   0.25335
 Alpha virt. eigenvalues --    0.26208   0.26346   0.27148   0.27357   0.27511
 Alpha virt. eigenvalues --    0.29036   0.29342   0.30755   0.31261   0.32194
 Alpha virt. eigenvalues --    0.32373   0.32746   0.32802   0.34505   0.34740
 Alpha virt. eigenvalues --    0.35097   0.36220   0.36871   0.37445   0.37888
 Alpha virt. eigenvalues --    0.38849   0.38939   0.41599   0.41827   0.42417
 Alpha virt. eigenvalues --    0.44258   0.44435   0.46181   0.46344   0.46925
 Alpha virt. eigenvalues --    0.47486   0.48082   0.48288   0.48821   0.49151
 Alpha virt. eigenvalues --    0.49629   0.49986   0.50133   0.50574   0.51355
 Alpha virt. eigenvalues --    0.51770   0.51934   0.52595   0.53187   0.53645
 Alpha virt. eigenvalues --    0.53814   0.54835   0.54898   0.55603   0.56231
 Alpha virt. eigenvalues --    0.57023   0.57728   0.58130   0.59025   0.59084
 Alpha virt. eigenvalues --    0.59443   0.62032   0.62174   0.65050   0.65690
 Alpha virt. eigenvalues --    0.67267   0.67401   0.68165   0.69386   0.70204
 Alpha virt. eigenvalues --    0.71352   0.72036   0.75632   0.76179   0.76453
 Alpha virt. eigenvalues --    0.78564   0.79937   0.80560   0.81780   0.83138
 Alpha virt. eigenvalues --    0.83705   0.84784   0.87319   0.88211   0.89822
 Alpha virt. eigenvalues --    0.91180   0.91594   0.92798   0.93887   0.95191
 Alpha virt. eigenvalues --    0.97130   0.97951   0.99178   0.99613   1.00033
 Alpha virt. eigenvalues --    1.02294   1.02515   1.04607   1.05239   1.05921
 Alpha virt. eigenvalues --    1.06898   1.09134   1.10445   1.10929   1.11251
 Alpha virt. eigenvalues --    1.12302   1.15161   1.16208   1.17465   1.17979
 Alpha virt. eigenvalues --    1.18781   1.19055   1.20014   1.20564   1.21009
 Alpha virt. eigenvalues --    1.22466   1.24852   1.25563   1.26437   1.27029
 Alpha virt. eigenvalues --    1.27801   1.28184   1.29153   1.29357   1.30313
 Alpha virt. eigenvalues --    1.30475   1.31810   1.33915   1.34394   1.35108
 Alpha virt. eigenvalues --    1.35357   1.37169   1.37563   1.38512   1.38788
 Alpha virt. eigenvalues --    1.39492   1.39848   1.40242   1.41654   1.42660
 Alpha virt. eigenvalues --    1.43533   1.43714   1.44607   1.45675   1.46111
 Alpha virt. eigenvalues --    1.47175   1.47931   1.48776   1.51042   1.51678
 Alpha virt. eigenvalues --    1.52796   1.54287   1.54995   1.56962   1.58357
 Alpha virt. eigenvalues --    1.58920   1.60620   1.62627   1.63390   1.64394
 Alpha virt. eigenvalues --    1.68152   1.69134   1.69437   1.69576   1.70397
 Alpha virt. eigenvalues --    1.73833   1.74669   1.77516   1.78819   1.78974
 Alpha virt. eigenvalues --    1.80876   1.82092   1.83451   1.84638   1.88857
 Alpha virt. eigenvalues --    1.89482   1.92195   1.92337   1.94598   1.95620
 Alpha virt. eigenvalues --    1.96379   1.99616   2.01473   2.06273   2.07426
 Alpha virt. eigenvalues --    2.07842   2.09709   2.10805   2.12830   2.13494
 Alpha virt. eigenvalues --    2.13962   2.16267   2.16720   2.18208   2.19131
 Alpha virt. eigenvalues --    2.20911   2.21205   2.21845   2.23643   2.24253
 Alpha virt. eigenvalues --    2.27722   2.28804   2.30910   2.32233   2.35737
 Alpha virt. eigenvalues --    2.36144   2.37152   2.38539   2.41223   2.42148
 Alpha virt. eigenvalues --    2.45784   2.46186   2.47532   2.50248   2.51342
 Alpha virt. eigenvalues --    2.51704   2.53129   2.56213   2.57124   2.57836
 Alpha virt. eigenvalues --    2.59171   2.61614   2.62129   2.63118   2.63302
 Alpha virt. eigenvalues --    2.65477   2.66111   2.67675   2.67938   2.68250
 Alpha virt. eigenvalues --    2.68698   2.70636   2.72879   2.73116   2.73411
 Alpha virt. eigenvalues --    2.74804   2.76098   2.76444   2.78286   2.80175
 Alpha virt. eigenvalues --    2.80490   2.82232   2.82508   2.82813   2.84530
 Alpha virt. eigenvalues --    2.84884   2.85287   2.86948   2.87219   2.88300
 Alpha virt. eigenvalues --    2.88572   2.89841   2.90117   2.90482   2.91633
 Alpha virt. eigenvalues --    2.93397   2.94671   2.95546   2.96278   2.97740
 Alpha virt. eigenvalues --    2.98534   3.02236   3.02410   3.02957   3.04724
 Alpha virt. eigenvalues --    3.06605   3.06759   3.07159   3.08408   3.09189
 Alpha virt. eigenvalues --    3.10768   3.11315   3.11986   3.12862   3.13741
 Alpha virt. eigenvalues --    3.13972   3.14806   3.15879   3.16239   3.16721
 Alpha virt. eigenvalues --    3.16861   3.17555   3.18512   3.19232   3.20524
 Alpha virt. eigenvalues --    3.20890   3.21074   3.22390   3.23076   3.24353
 Alpha virt. eigenvalues --    3.25232   3.25690   3.25767   3.26309   3.26708
 Alpha virt. eigenvalues --    3.27112   3.29854   3.30900   3.31564   3.31966
 Alpha virt. eigenvalues --    3.32635   3.33236   3.33566   3.35136   3.36008
 Alpha virt. eigenvalues --    3.37473   3.37964   3.38430   3.39664   3.39776
 Alpha virt. eigenvalues --    3.41278   3.41455   3.42403   3.43802   3.44029
 Alpha virt. eigenvalues --    3.44757   3.46153   3.47191   3.47358   3.49099
 Alpha virt. eigenvalues --    3.49713   3.50987   3.51520   3.51882   3.53267
 Alpha virt. eigenvalues --    3.53628   3.54290   3.55334   3.57586   3.58090
 Alpha virt. eigenvalues --    3.59062   3.59469   3.59824   3.61948   3.62865
 Alpha virt. eigenvalues --    3.63197   3.64422   3.64645   3.65745   3.68133
 Alpha virt. eigenvalues --    3.69567   3.69770   3.72169   3.72721   3.74359
 Alpha virt. eigenvalues --    3.76009   3.79342   3.80165   3.80671   3.81761
 Alpha virt. eigenvalues --    3.84171   3.84415   3.85029   3.85497   3.87146
 Alpha virt. eigenvalues --    3.88799   3.91864   3.92217   3.94810   3.94973
 Alpha virt. eigenvalues --    3.96092   3.98241   3.99981   4.02615   4.05084
 Alpha virt. eigenvalues --    4.05213   4.07761   4.08234   4.09475   4.09690
 Alpha virt. eigenvalues --    4.12825   4.13561   4.15323   4.16668   4.18589
 Alpha virt. eigenvalues --    4.20262   4.21820   4.24132   4.24638   4.26125
 Alpha virt. eigenvalues --    4.26939   4.28710   4.29037   4.29423   4.30678
 Alpha virt. eigenvalues --    4.33882   4.35632   4.40940   4.41476   4.42518
 Alpha virt. eigenvalues --    4.43405   4.44201   4.45429   4.47539   4.51041
 Alpha virt. eigenvalues --    4.53039   4.55284   4.56754   4.58100   4.59709
 Alpha virt. eigenvalues --    4.61789   4.63428   4.63707   4.66252   4.68544
 Alpha virt. eigenvalues --    4.71532   4.72602   4.75734   4.76538   4.79051
 Alpha virt. eigenvalues --    4.83957   4.85692   4.88095   4.90283   4.91779
 Alpha virt. eigenvalues --    4.92655   4.93042   4.95593   4.99511   5.02154
 Alpha virt. eigenvalues --    5.07870   5.09374   5.10920   5.14450   5.14911
 Alpha virt. eigenvalues --    5.21118   5.25408   5.26677   5.28632   5.32545
 Alpha virt. eigenvalues --    5.34860   5.36208   5.39532   5.39841   5.43547
 Alpha virt. eigenvalues --    5.47804   5.48431   5.53975   5.56313   5.59564
 Alpha virt. eigenvalues --    5.64624   5.73169   5.75320   5.81136   5.82125
 Alpha virt. eigenvalues --    7.94427   7.95352   8.03577   8.04849   8.08909
 Alpha virt. eigenvalues --    8.11241   8.12916   8.16403   8.19343   8.19788
 Alpha virt. eigenvalues --    8.32794   8.38004  34.74976  34.75710  34.82578
 Alpha virt. eigenvalues --   34.82747  34.85687  34.90484  34.99249  35.00483
 Alpha virt. eigenvalues --   35.03141  35.03181  35.15626  35.25907
  Beta  occ. eigenvalues --  -10.28816 -10.28692 -10.28642 -10.28354 -10.28205
  Beta  occ. eigenvalues --  -10.28157 -10.27989 -10.27915 -10.27672 -10.27631
  Beta  occ. eigenvalues --  -10.27544 -10.27528  -0.95480  -0.92536  -0.85939
  Beta  occ. eigenvalues --   -0.84465  -0.83399  -0.80772  -0.71391  -0.70595
  Beta  occ. eigenvalues --   -0.69014  -0.67384  -0.60062  -0.59206  -0.58597
  Beta  occ. eigenvalues --   -0.56063  -0.53482  -0.52475  -0.50864  -0.48882
  Beta  occ. eigenvalues --   -0.48862  -0.48488  -0.48163  -0.47252  -0.45702
  Beta  occ. eigenvalues --   -0.44562  -0.41224  -0.40716  -0.39852  -0.38717
  Beta  occ. eigenvalues --   -0.37575  -0.37249  -0.34567  -0.25122
  Beta virt. eigenvalues --    0.00399   0.10930   0.11542   0.13284   0.14017
  Beta virt. eigenvalues --    0.14783   0.15694   0.16379   0.17095   0.17309
  Beta virt. eigenvalues --    0.17981   0.18199   0.19448   0.20995   0.21147
  Beta virt. eigenvalues --    0.22261   0.22834   0.23391   0.24192   0.25334
  Beta virt. eigenvalues --    0.26208   0.26346   0.27149   0.27356   0.27511
  Beta virt. eigenvalues --    0.29037   0.29342   0.30755   0.31261   0.32194
  Beta virt. eigenvalues --    0.32373   0.32747   0.32802   0.34504   0.34741
  Beta virt. eigenvalues --    0.35097   0.36222   0.36871   0.37444   0.37888
  Beta virt. eigenvalues --    0.38849   0.38939   0.41599   0.41828   0.42417
  Beta virt. eigenvalues --    0.44258   0.44434   0.46181   0.46345   0.46925
  Beta virt. eigenvalues --    0.47486   0.48081   0.48288   0.48821   0.49151
  Beta virt. eigenvalues --    0.49628   0.49985   0.50134   0.50575   0.51355
  Beta virt. eigenvalues --    0.51769   0.51934   0.52595   0.53187   0.53644
  Beta virt. eigenvalues --    0.53815   0.54835   0.54898   0.55603   0.56231
  Beta virt. eigenvalues --    0.57023   0.57728   0.58130   0.59024   0.59084
  Beta virt. eigenvalues --    0.59443   0.62033   0.62173   0.65050   0.65690
  Beta virt. eigenvalues --    0.67268   0.67400   0.68165   0.69386   0.70205
  Beta virt. eigenvalues --    0.71351   0.72037   0.75632   0.76180   0.76453
  Beta virt. eigenvalues --    0.78565   0.79937   0.80560   0.81780   0.83137
  Beta virt. eigenvalues --    0.83704   0.84785   0.87319   0.88211   0.89821
  Beta virt. eigenvalues --    0.91181   0.91593   0.92798   0.93887   0.95191
  Beta virt. eigenvalues --    0.97130   0.97951   0.99179   0.99613   1.00033
  Beta virt. eigenvalues --    1.02293   1.02516   1.04608   1.05239   1.05922
  Beta virt. eigenvalues --    1.06898   1.09133   1.10445   1.10930   1.11251
  Beta virt. eigenvalues --    1.12302   1.15161   1.16207   1.17465   1.17979
  Beta virt. eigenvalues --    1.18781   1.19056   1.20014   1.20564   1.21010
  Beta virt. eigenvalues --    1.22466   1.24852   1.25563   1.26437   1.27029
  Beta virt. eigenvalues --    1.27801   1.28184   1.29152   1.29358   1.30313
  Beta virt. eigenvalues --    1.30475   1.31810   1.33915   1.34394   1.35108
  Beta virt. eigenvalues --    1.35358   1.37169   1.37563   1.38512   1.38788
  Beta virt. eigenvalues --    1.39492   1.39848   1.40242   1.41654   1.42660
  Beta virt. eigenvalues --    1.43533   1.43714   1.44607   1.45675   1.46111
  Beta virt. eigenvalues --    1.47175   1.47931   1.48776   1.51042   1.51678
  Beta virt. eigenvalues --    1.52796   1.54287   1.54995   1.56962   1.58357
  Beta virt. eigenvalues --    1.58920   1.60620   1.62627   1.63390   1.64394
  Beta virt. eigenvalues --    1.68152   1.69134   1.69437   1.69576   1.70397
  Beta virt. eigenvalues --    1.73833   1.74669   1.77516   1.78819   1.78974
  Beta virt. eigenvalues --    1.80876   1.82092   1.83451   1.84638   1.88857
  Beta virt. eigenvalues --    1.89482   1.92195   1.92337   1.94598   1.95620
  Beta virt. eigenvalues --    1.96379   1.99616   2.01473   2.06273   2.07426
  Beta virt. eigenvalues --    2.07842   2.09709   2.10805   2.12830   2.13494
  Beta virt. eigenvalues --    2.13962   2.16267   2.16720   2.18209   2.19131
  Beta virt. eigenvalues --    2.20912   2.21204   2.21845   2.23643   2.24253
  Beta virt. eigenvalues --    2.27722   2.28804   2.30910   2.32233   2.35737
  Beta virt. eigenvalues --    2.36144   2.37152   2.38539   2.41223   2.42148
  Beta virt. eigenvalues --    2.45784   2.46186   2.47532   2.50248   2.51343
  Beta virt. eigenvalues --    2.51704   2.53129   2.56213   2.57124   2.57836
  Beta virt. eigenvalues --    2.59171   2.61614   2.62129   2.63119   2.63302
  Beta virt. eigenvalues --    2.65477   2.66111   2.67675   2.67938   2.68250
  Beta virt. eigenvalues --    2.68698   2.70636   2.72879   2.73116   2.73411
  Beta virt. eigenvalues --    2.74804   2.76098   2.76443   2.78286   2.80175
  Beta virt. eigenvalues --    2.80490   2.82232   2.82508   2.82813   2.84530
  Beta virt. eigenvalues --    2.84884   2.85287   2.86948   2.87219   2.88301
  Beta virt. eigenvalues --    2.88572   2.89841   2.90117   2.90482   2.91633
  Beta virt. eigenvalues --    2.93397   2.94671   2.95546   2.96278   2.97740
  Beta virt. eigenvalues --    2.98533   3.02236   3.02410   3.02957   3.04724
  Beta virt. eigenvalues --    3.06605   3.06759   3.07159   3.08408   3.09189
  Beta virt. eigenvalues --    3.10768   3.11315   3.11986   3.12862   3.13741
  Beta virt. eigenvalues --    3.13972   3.14806   3.15879   3.16239   3.16721
  Beta virt. eigenvalues --    3.16861   3.17555   3.18512   3.19232   3.20524
  Beta virt. eigenvalues --    3.20890   3.21074   3.22390   3.23076   3.24353
  Beta virt. eigenvalues --    3.25232   3.25690   3.25767   3.26309   3.26708
  Beta virt. eigenvalues --    3.27113   3.29854   3.30900   3.31564   3.31966
  Beta virt. eigenvalues --    3.32634   3.33236   3.33567   3.35136   3.36008
  Beta virt. eigenvalues --    3.37473   3.37964   3.38429   3.39665   3.39775
  Beta virt. eigenvalues --    3.41278   3.41455   3.42403   3.43802   3.44030
  Beta virt. eigenvalues --    3.44758   3.46153   3.47190   3.47359   3.49099
  Beta virt. eigenvalues --    3.49713   3.50987   3.51520   3.51882   3.53267
  Beta virt. eigenvalues --    3.53628   3.54290   3.55334   3.57586   3.58090
  Beta virt. eigenvalues --    3.59062   3.59469   3.59824   3.61948   3.62865
  Beta virt. eigenvalues --    3.63197   3.64422   3.64645   3.65745   3.68133
  Beta virt. eigenvalues --    3.69567   3.69770   3.72169   3.72721   3.74359
  Beta virt. eigenvalues --    3.76009   3.79342   3.80165   3.80671   3.81761
  Beta virt. eigenvalues --    3.84171   3.84415   3.85029   3.85497   3.87146
  Beta virt. eigenvalues --    3.88799   3.91864   3.92217   3.94810   3.94973
  Beta virt. eigenvalues --    3.96092   3.98241   3.99981   4.02615   4.05084
  Beta virt. eigenvalues --    4.05213   4.07761   4.08234   4.09475   4.09690
  Beta virt. eigenvalues --    4.12825   4.13561   4.15323   4.16668   4.18589
  Beta virt. eigenvalues --    4.20262   4.21820   4.24132   4.24638   4.26125
  Beta virt. eigenvalues --    4.26939   4.28710   4.29037   4.29423   4.30678
  Beta virt. eigenvalues --    4.33882   4.35632   4.40940   4.41476   4.42518
  Beta virt. eigenvalues --    4.43405   4.44201   4.45429   4.47539   4.51041
  Beta virt. eigenvalues --    4.53039   4.55284   4.56754   4.58100   4.59709
  Beta virt. eigenvalues --    4.61789   4.63428   4.63707   4.66252   4.68544
  Beta virt. eigenvalues --    4.71532   4.72602   4.75734   4.76538   4.79051
  Beta virt. eigenvalues --    4.83957   4.85692   4.88095   4.90283   4.91779
  Beta virt. eigenvalues --    4.92655   4.93042   4.95593   4.99511   5.02154
  Beta virt. eigenvalues --    5.07870   5.09374   5.10920   5.14450   5.14911
  Beta virt. eigenvalues --    5.21118   5.25408   5.26676   5.28632   5.32545
  Beta virt. eigenvalues --    5.34860   5.36208   5.39532   5.39841   5.43547
  Beta virt. eigenvalues --    5.47804   5.48431   5.53975   5.56313   5.59564
  Beta virt. eigenvalues --    5.64624   5.73169   5.75320   5.81135   5.82126
  Beta virt. eigenvalues --    7.94427   7.95352   8.03577   8.04849   8.08909
  Beta virt. eigenvalues --    8.11240   8.12916   8.16403   8.19343   8.19787
  Beta virt. eigenvalues --    8.32794   8.38004  34.74976  34.75710  34.82578
  Beta virt. eigenvalues --   34.82747  34.85687  34.90483  34.99249  35.00483
  Beta virt. eigenvalues --   35.03141  35.03181  35.15626  35.25907
          Condensed to atoms (all electrons):
               1          2          3          4          5          6
     1  C    5.264095   0.032572   0.429699  -0.002947   0.001429  -0.014338
     2  C    0.032572   5.367405  -0.001530   0.429265  -0.109931   0.226574
     3  H    0.429699  -0.001530   0.484522   0.000037   0.000005   0.000148
     4  H   -0.002947   0.429265   0.000037   0.527320  -0.002005  -0.011798
     5  C    0.001429  -0.109931   0.000005  -0.002005   5.360286   0.258362
     6  C   -0.014338   0.226574   0.000148  -0.011798   0.258362   5.367973
     7  H   -0.000039   0.000374   0.000003   0.000338   0.423401  -0.029192
     8  H   -0.001155  -0.011993  -0.000067   0.001856  -0.050904   0.429337
     9  C    0.001811  -0.067724  -0.000004  -0.011032  -0.048544   0.237450
    10  H   -0.000034   0.007632  -0.000001  -0.000201  -0.002190  -0.049141
    11  H   -0.000290  -0.006213   0.000003   0.001132   0.011369  -0.048668
    12  C   -0.000094   0.017008  -0.000001   0.002477   0.432414  -0.076848
    13  H    0.000000  -0.000290   0.000000  -0.000044  -0.025347   0.003470
    14  C    0.000043  -0.014393  -0.000000  -0.001185  -0.055611   0.032657
    15  H   -0.000000   0.000148  -0.000000  -0.000068   0.004151  -0.001546
    16  C   -0.000270   0.026084   0.000000   0.001858  -0.004809  -0.078488
    17  H    0.000039   0.003565  -0.000000  -0.003513   0.004841  -0.013637
    18  H    0.000001  -0.000537   0.000000   0.000405  -0.001405   0.012212
    19  C   -0.055730   0.258684   0.004101  -0.050989   0.013510  -0.110154
    20  H    0.003405  -0.029004  -0.000123  -0.005109  -0.000604   0.000333
    21  C    0.448279  -0.076785  -0.033252   0.005674  -0.001272   0.017086
    22  H   -0.026138   0.003447  -0.004577  -0.000131   0.000047  -0.000290
    23  C   -0.100460   0.238260   0.004990  -0.021520   0.014910  -0.067946
    24  H    0.013181  -0.048771  -0.000037  -0.003119   0.003817  -0.006216
    25  H   -0.002827  -0.048756  -0.000171  -0.005470   0.000116   0.007609
    26  C    0.278929  -0.078896  -0.027186   0.009128  -0.010693   0.026139
    27  H   -0.031095   0.012206  -0.003821  -0.000151   0.000100  -0.000538
    28  H   -0.042260  -0.013508   0.000017  -0.000153  -0.000652   0.003463
               7          8          9         10         11         12
     1  C   -0.000039  -0.001155   0.001811  -0.000034  -0.000290  -0.000094
     2  C    0.000374  -0.011993  -0.067724   0.007632  -0.006213   0.017008
     3  H    0.000003  -0.000067  -0.000004  -0.000001   0.000003  -0.000001
     4  H    0.000338   0.001856  -0.011032  -0.000201   0.001132   0.002477
     5  C    0.423401  -0.050904  -0.048544  -0.002190   0.011369   0.432414
     6  C   -0.029192   0.429337   0.237450  -0.049141  -0.048668  -0.076848
     7  H    0.469958  -0.005106   0.002497   0.000198  -0.000034  -0.025585
     8  H   -0.005106   0.527871  -0.021608  -0.005489  -0.003123   0.005630
     9  C    0.002497  -0.021608   5.060642   0.420970   0.452940   0.035002
    10  H    0.000198  -0.005489   0.420970   0.543954  -0.013381   0.002239
    11  H   -0.000034  -0.003123   0.452940  -0.013381   0.517994  -0.005323
    12  C   -0.025585   0.005630   0.035002   0.002239  -0.005323   4.993888
    13  H   -0.004078  -0.000132   0.000492  -0.000104   0.000026   0.416533
    14  C    0.003387  -0.002944  -0.100567  -0.002790   0.013165   0.447704
    15  H   -0.000124   0.000037   0.004996  -0.000172  -0.000037  -0.033611
    16  C   -0.001025   0.009137   0.322298  -0.025952  -0.056293  -0.047527
    17  H   -0.000041  -0.000154  -0.027035   0.004496  -0.003036  -0.003438
    18  H    0.000056  -0.000151  -0.042147  -0.005494  -0.003207   0.003364
    19  C   -0.000607  -0.002072   0.015006   0.000112   0.003816  -0.001277
    20  H    0.000003   0.000336   0.002431   0.000287  -0.003927   0.000000
    21  C    0.000001   0.002498  -0.004102  -0.000002   0.000122   0.000109
    22  H   -0.000001  -0.000044  -0.000061  -0.000002  -0.000009  -0.000000
    23  C    0.002407  -0.011008   0.008874  -0.000205  -0.000006  -0.004089
    24  H   -0.003931   0.001128  -0.000004  -0.000016  -0.000004   0.000115
    25  H    0.000287  -0.000199  -0.000205   0.000016  -0.000016   0.000001
    26  C   -0.000716   0.001843  -0.002069   0.000064   0.000043   0.000907
    27  H   -0.000027   0.000407   0.000034  -0.000002  -0.000004  -0.000001
    28  H    0.001910  -0.003524   0.000914   0.000013   0.000013  -0.000047
              13         14         15         16         17         18
     1  C    0.000000   0.000043  -0.000000  -0.000270   0.000039   0.000001
     2  C   -0.000290  -0.014393   0.000148   0.026084   0.003565  -0.000537
     3  H    0.000000  -0.000000  -0.000000   0.000000  -0.000000   0.000000
     4  H   -0.000044  -0.001185  -0.000068   0.001858  -0.003513   0.000405
     5  C   -0.025347  -0.055611   0.004151  -0.004809   0.004841  -0.001405
     6  C    0.003470   0.032657  -0.001546  -0.078488  -0.013637   0.012212
     7  H   -0.004078   0.003387  -0.000124  -0.001025  -0.000041   0.000056
     8  H   -0.000132  -0.002944   0.000037   0.009137  -0.000154  -0.000151
     9  C    0.000492  -0.100567   0.004996   0.322298  -0.027035  -0.042147
    10  H   -0.000104  -0.002790  -0.000172  -0.025952   0.004496  -0.005494
    11  H    0.000026   0.013165  -0.000037  -0.056293  -0.003036  -0.003207
    12  C    0.416533   0.447704  -0.033611  -0.047527  -0.003438   0.003364
    13  H    0.492559  -0.026233  -0.004592   0.003543  -0.000299  -0.000127
    14  C   -0.026233   5.264491   0.430014   0.278935  -0.042227  -0.031020
    15  H   -0.004592   0.430014   0.484680  -0.027165   0.000019  -0.003810
    16  C    0.003543   0.278935  -0.027165   4.974046   0.406094   0.422854
    17  H   -0.000299  -0.042227   0.000019   0.406094   0.573571  -0.022261
    18  H   -0.000127  -0.031020  -0.003810   0.422854  -0.022261   0.540611
    19  C    0.000047   0.001441   0.000005  -0.010746  -0.000688   0.000101
    20  H   -0.000001  -0.000036   0.000003  -0.000736   0.001893  -0.000028
    21  C   -0.000000  -0.000092  -0.000001   0.000903  -0.000053  -0.000000
    22  H    0.000000   0.000000   0.000000   0.000001  -0.000005  -0.000001
    23  C   -0.000061   0.001801  -0.000004  -0.002051   0.000919   0.000034
    24  H   -0.000009  -0.000289   0.000003   0.000041   0.000013  -0.000004
    25  H   -0.000002  -0.000034  -0.000001   0.000064   0.000012  -0.000002
    26  C    0.000001  -0.000270   0.000000   0.000480  -0.000052  -0.000001
    27  H   -0.000001   0.000001   0.000000  -0.000001   0.000001  -0.000000
    28  H   -0.000005   0.000039  -0.000000  -0.000052  -0.000002   0.000001
              19         20         21         22         23         24
     1  C   -0.055730   0.003405   0.448279  -0.026138  -0.100460   0.013181
     2  C    0.258684  -0.029004  -0.076785   0.003447   0.238260  -0.048771
     3  H    0.004101  -0.000123  -0.033252  -0.004577   0.004990  -0.000037
     4  H   -0.050989  -0.005109   0.005674  -0.000131  -0.021520  -0.003119
     5  C    0.013510  -0.000604  -0.001272   0.000047   0.014910   0.003817
     6  C   -0.110154   0.000333   0.017086  -0.000290  -0.067946  -0.006216
     7  H   -0.000607   0.000003   0.000001  -0.000001   0.002407  -0.003931
     8  H   -0.002072   0.000336   0.002498  -0.000044  -0.011008   0.001128
     9  C    0.015006   0.002431  -0.004102  -0.000061   0.008874  -0.000004
    10  H    0.000112   0.000287  -0.000002  -0.000002  -0.000205  -0.000016
    11  H    0.003816  -0.003927   0.000122  -0.000009  -0.000006  -0.000004
    12  C   -0.001277   0.000000   0.000109  -0.000000  -0.004089   0.000115
    13  H    0.000047  -0.000001  -0.000000   0.000000  -0.000061  -0.000009
    14  C    0.001441  -0.000036  -0.000092   0.000000   0.001801  -0.000289
    15  H    0.000005   0.000003  -0.000001   0.000000  -0.000004   0.000003
    16  C   -0.010746  -0.000736   0.000903   0.000001  -0.002051   0.000041
    17  H   -0.000688   0.001893  -0.000053  -0.000005   0.000919   0.000013
    18  H    0.000101  -0.000028  -0.000000  -0.000001   0.000034  -0.000004
    19  C    5.360257   0.423500   0.432400  -0.025330  -0.048684   0.011392
    20  H    0.423500   0.469791  -0.025849  -0.004074   0.002496  -0.000034
    21  C    0.432400  -0.025849   4.993623   0.416448   0.034735  -0.005334
    22  H   -0.025330  -0.004074   0.416448   0.492515   0.000491   0.000026
    23  C   -0.048684   0.002496   0.034735   0.000491   5.059829   0.453085
    24  H    0.011392  -0.000034  -0.005334   0.000026   0.453085   0.518123
    25  H   -0.002294   0.000197   0.002242  -0.000104   0.420539  -0.013445
    26  C   -0.004688  -0.001032  -0.047517   0.003540   0.322539  -0.056371
    27  H   -0.001415   0.000056   0.003442  -0.000126  -0.042047  -0.003202
    28  H    0.004799  -0.000041  -0.003421  -0.000300  -0.027223  -0.003052
              25         26         27         28
     1  C   -0.002827   0.278929  -0.031095  -0.042260
     2  C   -0.048756  -0.078896   0.012206  -0.013508
     3  H   -0.000171  -0.027186  -0.003821   0.000017
     4  H   -0.005470   0.009128  -0.000151  -0.000153
     5  C    0.000116  -0.010693   0.000100  -0.000652
     6  C    0.007609   0.026139  -0.000538   0.003463
     7  H    0.000287  -0.000716  -0.000027   0.001910
     8  H   -0.000199   0.001843   0.000407  -0.003524
     9  C   -0.000205  -0.002069   0.000034   0.000914
    10  H    0.000016   0.000064  -0.000002   0.000013
    11  H   -0.000016   0.000043  -0.000004   0.000013
    12  C    0.000001   0.000907  -0.000001  -0.000047
    13  H   -0.000002   0.000001  -0.000001  -0.000005
    14  C   -0.000034  -0.000270   0.000001   0.000039
    15  H   -0.000001   0.000000   0.000000  -0.000000
    16  C    0.000064   0.000480  -0.000001  -0.000052
    17  H    0.000012  -0.000052   0.000001  -0.000002
    18  H   -0.000002  -0.000001  -0.000000   0.000001
    19  C   -0.002294  -0.004688  -0.001415   0.004799
    20  H    0.000197  -0.001032   0.000056  -0.000041
    21  C    0.002242  -0.047517   0.003442  -0.003421
    22  H   -0.000104   0.003540  -0.000126  -0.000300
    23  C    0.420539   0.322539  -0.042047  -0.027223
    24  H   -0.013445  -0.056371  -0.003202  -0.003052
    25  H    0.544012  -0.025722  -0.005500   0.004499
    26  C   -0.025722   4.974087   0.422782   0.406241
    27  H   -0.005500   0.422782   0.540613  -0.022287
    28  H    0.004499   0.406241  -0.022287   0.573660
          Atomic-Atomic Spin Densities.
               1          2          3          4          5          6
     1  C   -0.708539  -0.006192   0.001192  -0.000109   0.000300  -0.003558
     2  C   -0.006192   0.082705  -0.000179  -0.002189  -0.038667   0.000042
     3  H    0.001192  -0.000179   0.025212   0.000002   0.000003   0.000036
     4  H   -0.000109  -0.002189   0.000002  -0.010704   0.001577   0.007634
     5  C    0.000300  -0.038667   0.000003   0.001577   0.763008  -0.038348
     6  C   -0.003558   0.000042   0.000036   0.007634  -0.038348  -0.082951
     7  H    0.000002   0.000960   0.000000  -0.000008  -0.004278   0.001108
     8  H    0.001157  -0.007659   0.000008   0.000001  -0.000662   0.002166
     9  C   -0.000146  -0.010834   0.000000  -0.001026  -0.005350   0.011467
    10  H   -0.000001   0.000397  -0.000000  -0.000026  -0.001622  -0.000013
    11  H    0.000184   0.000475  -0.000000   0.000039   0.000093   0.000672
    12  C    0.000052   0.005968  -0.000000  -0.000982  -0.006307   0.007238
    13  H    0.000000   0.000121  -0.000000  -0.000017  -0.001123   0.000306
    14  C   -0.000000   0.003513  -0.000000  -0.001156  -0.060006   0.006176
    15  H    0.000000  -0.000037   0.000000  -0.000007  -0.000419   0.000178
    16  C    0.000020  -0.000377   0.000000   0.000973   0.006569  -0.003393
    17  H   -0.000006  -0.002331   0.000000   0.000252   0.003936  -0.003180
    18  H    0.000001   0.000173  -0.000000  -0.000035  -0.000127   0.000912
    19  C    0.060040   0.038497   0.000420   0.000669   0.000000   0.038643
    20  H    0.000304  -0.001083  -0.000004  -0.000144  -0.000067  -0.000956
    21  C   -0.008255  -0.007244  -0.000570   0.000873   0.000418  -0.005933
    22  H    0.000771  -0.000305  -0.000256   0.000022   0.000006  -0.000121
    23  C   -0.002343  -0.011361   0.000288  -0.004062  -0.004126   0.010824
    24  H   -0.000167  -0.000665  -0.000005   0.000118   0.000364  -0.000482
    25  H    0.000358   0.000009   0.000007   0.000102   0.000205  -0.000396
    26  C    0.032922   0.003350  -0.000955  -0.000102   0.000061   0.000408
    27  H    0.007370  -0.000906  -0.000220   0.000048   0.000048  -0.000174
    28  H    0.021472   0.003172   0.000103  -0.000206  -0.000108   0.002343
               7          8          9         10         11         12
     1  C    0.000002   0.001157  -0.000146  -0.000001   0.000184   0.000052
     2  C    0.000960  -0.007659  -0.010834   0.000397   0.000475   0.005968
     3  H    0.000000   0.000008   0.000000  -0.000000  -0.000000  -0.000000
     4  H   -0.000008   0.000001  -0.001026  -0.000026   0.000039  -0.000982
     5  C   -0.004278  -0.000662  -0.005350  -0.001622   0.000093  -0.006307
     6  C    0.001108   0.002166   0.011467  -0.000013   0.000672   0.007238
     7  H   -0.025190   0.000142  -0.000455  -0.000023   0.000007   0.002263
     8  H    0.000142   0.010726   0.004078  -0.000103  -0.000118  -0.000881
     9  C   -0.000455   0.004078   0.002728  -0.000567  -0.001011  -0.002185
    10  H   -0.000023  -0.000103  -0.000567   0.000688   0.000324   0.001184
    11  H    0.000007  -0.000118  -0.001011   0.000324  -0.000213  -0.000120
    12  C    0.002263  -0.000881  -0.002185   0.001184  -0.000120  -0.246587
    13  H    0.000320  -0.000022  -0.000098   0.000016  -0.000001   0.001463
    14  C   -0.000309   0.000115   0.002339  -0.000358   0.000166   0.008251
    15  H    0.000004  -0.000002  -0.000289  -0.000007   0.000005   0.000584
    16  C    0.000039   0.000096   0.007535   0.000402  -0.000019   0.004026
    17  H   -0.000039   0.000207  -0.002466   0.000235  -0.000334  -0.000208
    18  H    0.000006  -0.000048   0.002797  -0.000489   0.000190   0.000547
    19  C    0.000066  -0.001561   0.004141  -0.000205  -0.000363  -0.000423
    20  H    0.000000   0.000008   0.000234   0.000019  -0.000192   0.000027
    21  C   -0.000026   0.000976  -0.000793  -0.000001   0.000041  -0.000000
    22  H   -0.000000   0.000017  -0.000022   0.000000   0.000006  -0.000000
    23  C   -0.000235   0.001037  -0.000006  -0.000010  -0.000122   0.000798
    24  H    0.000192  -0.000039   0.000122   0.000000   0.000000  -0.000040
    25  H   -0.000019   0.000026   0.000010  -0.000000  -0.000000   0.000000
    26  C    0.000164  -0.000979   0.000013  -0.000000  -0.000027  -0.000171
    27  H    0.000004   0.000034   0.000009   0.000000   0.000001   0.000004
    28  H   -0.000097  -0.000248  -0.000084  -0.000004  -0.000029  -0.000088
              13         14         15         16         17         18
     1  C    0.000000  -0.000000   0.000000   0.000020  -0.000006   0.000001
     2  C    0.000121   0.003513  -0.000037  -0.000377  -0.002331   0.000173
     3  H   -0.000000  -0.000000   0.000000   0.000000   0.000000  -0.000000
     4  H   -0.000017  -0.001156  -0.000007   0.000973   0.000252  -0.000035
     5  C   -0.001123  -0.060006  -0.000419   0.006569   0.003936  -0.000127
     6  C    0.000306   0.006176   0.000178  -0.003393  -0.003180   0.000912
     7  H    0.000320  -0.000309   0.000004   0.000039  -0.000039   0.000006
     8  H   -0.000022   0.000115  -0.000002   0.000096   0.000207  -0.000048
     9  C   -0.000098   0.002339  -0.000289   0.007535  -0.002466   0.002797
    10  H    0.000016  -0.000358  -0.000007   0.000402   0.000235  -0.000489
    11  H   -0.000001   0.000166   0.000005  -0.000019  -0.000334   0.000190
    12  C    0.001463   0.008251   0.000584   0.004026  -0.000208   0.000547
    13  H    0.008616  -0.000778   0.000256   0.000079  -0.000042   0.000016
    14  C   -0.000778   0.708482  -0.001201  -0.032864  -0.021431  -0.007392
    15  H    0.000256  -0.001201  -0.025218   0.000952  -0.000096   0.000216
    16  C    0.000079  -0.032864   0.000952  -0.037389   0.011480   0.005010
    17  H   -0.000042  -0.021431  -0.000096   0.011480   0.055929  -0.008619
    18  H    0.000016  -0.007392   0.000216   0.005010  -0.008619   0.021090
    19  C   -0.000006  -0.000290  -0.000003  -0.000072   0.000104  -0.000048
    20  H    0.000000  -0.000002  -0.000000  -0.000164   0.000094  -0.000004
    21  C    0.000000  -0.000051   0.000000   0.000169   0.000087  -0.000004
    22  H    0.000000  -0.000000   0.000000   0.000002   0.000001  -0.000000
    23  C    0.000022   0.000142  -0.000000  -0.000009   0.000085  -0.000009
    24  H   -0.000006  -0.000183   0.000000   0.000026   0.000029  -0.000001
    25  H   -0.000000   0.000001   0.000000   0.000000   0.000004  -0.000000
    26  C   -0.000002  -0.000019  -0.000000  -0.000001   0.000008  -0.000000
    27  H    0.000000  -0.000001   0.000000   0.000000   0.000000  -0.000000
    28  H   -0.000001   0.000006  -0.000000  -0.000008  -0.000000  -0.000000
              19         20         21         22         23         24
     1  C    0.060040   0.000304  -0.008255   0.000771  -0.002343  -0.000167
     2  C    0.038497  -0.001083  -0.007244  -0.000305  -0.011361  -0.000665
     3  H    0.000420  -0.000004  -0.000570  -0.000256   0.000288  -0.000005
     4  H    0.000669  -0.000144   0.000873   0.000022  -0.004062   0.000118
     5  C    0.000000  -0.000067   0.000418   0.000006  -0.004126   0.000364
     6  C    0.038643  -0.000956  -0.005933  -0.000121   0.010824  -0.000482
     7  H    0.000066   0.000000  -0.000026  -0.000000  -0.000235   0.000192
     8  H   -0.001561   0.000008   0.000976   0.000017   0.001037  -0.000039
     9  C    0.004141   0.000234  -0.000793  -0.000022  -0.000006   0.000122
    10  H   -0.000205   0.000019  -0.000001   0.000000  -0.000010   0.000000
    11  H   -0.000363  -0.000192   0.000041   0.000006  -0.000122   0.000000
    12  C   -0.000423   0.000027  -0.000000  -0.000000   0.000798  -0.000040
    13  H   -0.000006   0.000000   0.000000   0.000000   0.000022  -0.000006
    14  C   -0.000290  -0.000002  -0.000051  -0.000000   0.000142  -0.000183
    15  H   -0.000003  -0.000000   0.000000   0.000000  -0.000000   0.000000
    16  C   -0.000072  -0.000164   0.000169   0.000002  -0.000009   0.000026
    17  H    0.000104   0.000094   0.000087   0.000001   0.000085   0.000029
    18  H   -0.000048  -0.000004  -0.000004  -0.000000  -0.000009  -0.000001
    19  C   -0.763104   0.004269   0.006276   0.001120   0.005289  -0.000093
    20  H    0.004269   0.025182  -0.002267  -0.000319   0.000451  -0.000007
    21  C    0.006276  -0.002267   0.246638  -0.001458   0.002178   0.000119
    22  H    0.001120  -0.000319  -0.001458  -0.008613   0.000098   0.000001
    23  C    0.005289   0.000451   0.002178   0.000098  -0.002867   0.001007
    24  H   -0.000093  -0.000007   0.000119   0.000001   0.001007   0.000212
    25  H    0.001622   0.000023  -0.001184  -0.000016   0.000574  -0.000323
    26  C   -0.006555  -0.000039  -0.004033  -0.000078  -0.007457   0.000022
    27  H    0.000127  -0.000005  -0.000537  -0.000015  -0.002811  -0.000191
    28  H   -0.003939   0.000038   0.000183   0.000041   0.002491   0.000335
              25         26         27         28
     1  C    0.000358   0.032922   0.007370   0.021472
     2  C    0.000009   0.003350  -0.000906   0.003172
     3  H    0.000007  -0.000955  -0.000220   0.000103
     4  H    0.000102  -0.000102   0.000048  -0.000206
     5  C    0.000205   0.000061   0.000048  -0.000108
     6  C   -0.000396   0.000408  -0.000174   0.002343
     7  H   -0.000019   0.000164   0.000004  -0.000097
     8  H    0.000026  -0.000979   0.000034  -0.000248
     9  C    0.000010   0.000013   0.000009  -0.000084
    10  H   -0.000000  -0.000000   0.000000  -0.000004
    11  H   -0.000000  -0.000027   0.000001  -0.000029
    12  C    0.000000  -0.000171   0.000004  -0.000088
    13  H   -0.000000  -0.000002   0.000000  -0.000001
    14  C    0.000001  -0.000019  -0.000001   0.000006
    15  H    0.000000  -0.000000   0.000000  -0.000000
    16  C    0.000000  -0.000001   0.000000  -0.000008
    17  H    0.000004   0.000008   0.000000  -0.000000
    18  H   -0.000000  -0.000000  -0.000000  -0.000000
    19  C    0.001622  -0.006555   0.000127  -0.003939
    20  H    0.000023  -0.000039  -0.000005   0.000038
    21  C   -0.001184  -0.004033  -0.000537   0.000183
    22  H   -0.000016  -0.000078  -0.000015   0.000041
    23  C    0.000574  -0.007457  -0.002811   0.002491
    24  H   -0.000323   0.000022  -0.000191   0.000335
    25  H   -0.000689  -0.000406   0.000489  -0.000236
    26  C   -0.000406   0.037291  -0.004993  -0.011518
    27  H    0.000489  -0.004993  -0.021070   0.008611
[...]
     2  C    0.000598   0.003817  -0.001380   0.005106
     3  H    0.000006  -0.000795  -0.000202   0.000084
     4  H    0.000098  -0.000020   0.000046  -0.000208
     5  C    0.000236  -0.000448   0.000027   0.000213
     6  C   -0.000441  -0.000457  -0.000018   0.000716
     7  H   -0.000019   0.000212   0.000005  -0.000129
     8  H    0.000029  -0.000885   0.000014   0.000081
     9  C   -0.000003  -0.000001   0.000012  -0.000120
    10  H    0.000000  -0.000005   0.000000  -0.000004
    11  H    0.000000  -0.000006   0.000001  -0.000018
    12  C    0.000003  -0.000109   0.000001  -0.000049
    13  H   -0.000000  -0.000001  -0.000000  -0.000001
    14  C   -0.000002  -0.000008  -0.000000   0.000001
    15  H    0.000000  -0.000000   0.000000  -0.000000
    16  C    0.000004  -0.000001  -0.000000   0.000001
    17  H    0.000004  -0.000001   0.000000  -0.000000
    18  H   -0.000000   0.000000   0.000000  -0.000000
    19  C    0.001322  -0.004941   0.000299  -0.004443
    20  H    0.000018  -0.000070  -0.000007   0.000044
    21  C   -0.001201  -0.004545  -0.000592   0.000557
    22  H   -0.000012  -0.000129  -0.000017   0.000044
    23  C   -0.000262  -0.008859  -0.001861   0.000591
    24  H   -0.000320  -0.000165  -0.000181   0.000330
    25  H   -0.000468  -0.000048   0.000421  -0.000211
    26  C   -0.000048   0.039447  -0.005621  -0.009155
    27  H    0.000421  -0.005621  -0.020678   0.008308
    28  H   -0.000211  -0.009155   0.008308  -0.055478
 Mulliken charges and spin densities:
               1          2
     1  C   -0.192359  -0.600599
     2  C   -0.145641   0.051263
     3  H    0.150141   0.024655
     4  H    0.153681  -0.008730
     5  C   -0.221582   0.613264
     6  C   -0.143596  -0.051210
     7  H    0.172142  -0.024934
     8  H    0.153021   0.008717
     9  C   -0.260749   0.009626
    10  H    0.134945  -0.000076
    11  H    0.150236  -0.000042
    12  C   -0.156050  -0.223644
    13  H    0.147283   0.008979
    14  C   -0.192670   0.600668
    15  H    0.150219  -0.024656
    16  C   -0.193981  -0.035787
    17  H    0.125533   0.033865
    18  H    0.135558   0.014174
    19  C   -0.219911  -0.613386
    20  H    0.172332   0.024936
    21  C   -0.157075   0.223675
    22  H    0.147151  -0.008983
    23  C   -0.258757  -0.009657
    24  H    0.150239   0.000046
    25  H    0.134028   0.000076
    26  C   -0.195090   0.035803
    27  H    0.135628  -0.014170
    28  H    0.125326  -0.033875
 Sum of Mulliken charges =  -0.00000   0.00000
 Mulliken charges and spin densities with hydrogens summed into heavy atoms:
               1          2
     1  C   -0.042218  -0.575944
     2  C    0.008040   0.042533
     5  C   -0.049441   0.588330
     6  C    0.009426  -0.042493
     9  C    0.024432   0.009508
    12  C   -0.008767  -0.214665
    14  C   -0.042451   0.576012
    16  C    0.067109   0.012251
    19  C   -0.047579  -0.588450
    21  C   -0.009924   0.214692
    23  C    0.025510  -0.009535
    26  C    0.065863  -0.012241
 Electronic spatial extent (au):  <R**2>=           2161.9522
 Charge=             -0.0000 electrons
 Dipole moment (field-independent basis, Debye):
    X=             -0.0015    Y=             -0.0013    Z=             -0.0007  Tot=              0.0021
 Quadrupole moment (field-independent basis, Debye-Ang):
   XX=            -69.6739   YY=            -69.5512   ZZ=            -74.9759
   XY=             -2.3415   XZ=             -2.5346   YZ=              0.2342
 Traceless Quadrupole moment (field-independent basis, Debye-Ang):
   XX=              1.7264   YY=              1.8491   ZZ=             -3.5756
   XY=             -2.3415   XZ=             -2.5346   YZ=              0.2342
 Octapole moment (field-independent basis, Debye-Ang**2):
  XXX=             -0.0131  YYY=             -0.0098  ZZZ=             -0.0082  XYY=             -0.0008
  XXY=              0.0004  XXZ=             -0.0103  XZZ=             -0.0117  YZZ=              0.0002
  YYZ=              0.0042  XYZ=              0.0104
 Hexadecapole moment (field-independent basis, Debye-Ang**3):
 XXXX=          -1940.2823 YYYY=           -620.9250 ZZZZ=           -270.9596 XXXY=            -84.9039
 XXXZ=           -102.9680 YYYX=            -60.9747 YYYZ=              1.1515 ZZZX=            -56.8279
 ZZZY=             -7.8475 XXYY=           -425.6605 XXZZ=           -403.9930 YYZZ=           -163.1269
 XXYZ=            -17.2719 YYXZ=            -20.1880 ZZXY=            -40.9760
 N-N= 6.976107741534D+02 E-N=-2.477710891059D+03  KE= 4.642330213111D+02
                          Isotropic Fermi Contact Couplings
        Atom                 a.u.       MegaHertz       Gauss      10(-4) cm-1
     1  C(13)             -0.04674     -26.27410      -9.37525      -8.76409
     2  C(13)              0.05392      30.30546      10.81374      10.10881
     3  H(1)               0.00921      20.57937       7.34323       6.86454
     4  H(1)              -0.00440      -9.84082      -3.51145      -3.28254
     5  C(13)              0.04763      26.77403       9.55364       8.93086
     6  C(13)             -0.05392     -30.30883     -10.81494     -10.10994
     7  H(1)              -0.00945     -21.12070      -7.53639      -7.04511
     8  H(1)               0.00440       9.83851       3.51063       3.28177
     9  C(13)              0.00223       1.25413       0.44750       0.41833
    10  H(1)              -0.00026      -0.59030      -0.21064      -0.19690
    11  H(1)              -0.00041      -0.92464      -0.32994      -0.30843
    12  C(13)             -0.04415     -24.81818      -8.85575      -8.27845
    13  H(1)               0.00306       6.82893       2.43673       2.27788
    14  C(13)              0.04675      26.27556       9.37577       8.76458
    15  H(1)              -0.00921     -20.58057      -7.34366      -6.86494
    16  C(13)             -0.01888     -10.61502      -3.78770      -3.54079
    17  H(1)               0.01624      36.29397      12.95059      12.10637
    18  H(1)               0.00672      15.01281       5.35694       5.00774
    19  C(13)             -0.04765     -26.78406      -9.55722      -8.93420
    20  H(1)               0.00945      21.12292       7.53718       7.04585
    21  C(13)              0.04416      24.82094       8.85673       8.27938
    22  H(1)              -0.00306      -6.82895      -2.43674      -2.27789
    23  C(13)             -0.00223      -1.25133      -0.44651      -0.41740
    24  H(1)               0.00041       0.92603       0.33043       0.30889
    25  H(1)               0.00026       0.59204       0.21125       0.19748
    26  C(13)              0.01888      10.61395       3.78732       3.54043
    27  H(1)              -0.00672     -15.01145      -5.35646      -5.00728
    28  H(1)              -0.01623     -36.28377     -12.94695     -12.10296
 --------------------------------------------------------
       Center         ----  Spin Dipole Couplings  ----
                      3XX-RR        3YY-RR        3ZZ-RR
 --------------------------------------------------------
     1   Atom        0.175093      0.359680     -0.534772
     2   Atom        0.000397     -0.018035      0.017638
     3   Atom       -0.037552      0.045746     -0.008194
     4   Atom       -0.003375     -0.003863      0.007238
     5   Atom       -0.255995     -0.349786      0.605781
     6   Atom       -0.000390      0.018038     -0.017648
     7   Atom       -0.020034      0.017338      0.002696
     8   Atom        0.003376      0.003863     -0.007239
     9   Atom       -0.000526      0.007287     -0.006761
    10   Atom       -0.004204      0.003559      0.000645
    11   Atom       -0.006630      0.007471     -0.000841
    12   Atom        0.083892      0.099565     -0.183457
    13   Atom        0.007382     -0.001510     -0.005872
    14   Atom       -0.175088     -0.359715      0.534803
    15   Atom        0.037553     -0.045751      0.008198
    16   Atom       -0.005794      0.002846      0.002948
    17   Atom       -0.008334      0.009179     -0.000845
    18   Atom       -0.006581      0.011108     -0.004527
    19   Atom        0.256049      0.349861     -0.605910
    20   Atom        0.020042     -0.017342     -0.002700
    21   Atom       -0.083908     -0.099585      0.183494
    22   Atom       -0.007387      0.001515      0.005871
    23   Atom        0.000520     -0.007286      0.006766
    24   Atom        0.006629     -0.007470      0.000841
    25   Atom        0.004205     -0.003561     -0.000645
    26   Atom        0.005788     -0.002853     -0.002934
    27   Atom        0.006579     -0.011107      0.004528
    28   Atom        0.008331     -0.009180      0.000849
 --------------------------------------------------------
                        XY            XZ            YZ
 --------------------------------------------------------
     1   Atom        0.011739     -0.391711      0.030048
     2   Atom        0.007867      0.030382      0.015098
     3   Atom       -0.008377      0.017063      0.005485
     4   Atom       -0.005040      0.006170      0.009241
     5   Atom       -0.047713      0.324502     -0.107709
     6   Atom       -0.007869     -0.030386     -0.015100
     7   Atom       -0.043258      0.002475      0.014563
     8   Atom        0.005039     -0.006169     -0.009241
     9   Atom       -0.014240     -0.013018      0.001904
    10   Atom       -0.001166     -0.003941     -0.005895
    11   Atom        0.004658     -0.008620     -0.000014
    12   Atom       -0.006390     -0.116830      0.032574
    13   Atom       -0.007689     -0.007180      0.003226
    14   Atom       -0.011745      0.391776     -0.030060
    15   Atom        0.008378     -0.017067     -0.005486
    16   Atom        0.001701      0.006275     -0.000795
    17   Atom        0.004667      0.001894      0.005763
    18   Atom       -0.002363     -0.000857     -0.002627
    19   Atom        0.047742     -0.324602      0.107791
    20   Atom        0.043267     -0.002472     -0.014574
    21   Atom        0.006384      0.116861     -0.032587
    22   Atom        0.007689      0.007182     -0.003224
    23   Atom        0.014246      0.013009     -0.001894
    24   Atom       -0.004656      0.008618      0.000014
    25   Atom        0.001167      0.003942      0.005895
    26   Atom       -0.001696     -0.006270      0.000802
    27   Atom        0.002363      0.000856      0.002627
    28   Atom       -0.004666     -0.001892     -0.005761
 --------------------------------------------------------


 ---------------------------------------------------------------------------------
              Anisotropic Spin Dipole Couplings in Principal Axis System
 ---------------------------------------------------------------------------------

       Atom             a.u.   MegaHertz   Gauss  10(-4) cm-1        Axes

              Baa    -0.7094   -95.196   -33.968   -31.754  0.4051 -0.0301  0.9138
     1 C(13)  Bbb     0.3486    46.777    16.691    15.603  0.9092  0.1189 -0.3991
              Bcc     0.3608    48.419    17.277    16.151 -0.0967  0.9924  0.0756
 
              Baa    -0.0253    -3.391    -1.210    -1.131  0.4630  0.6809 -0.5675
     2 C(13)  Bbb    -0.0198    -2.658    -0.948    -0.886 -0.6754  0.6856  0.2716
              Bcc     0.0451     6.048     2.158     2.018  0.5740  0.2575  0.7773
 
              Baa    -0.0464   -24.781    -8.843    -8.266  0.9022  0.1068 -0.4178
     3 H(1)   Bbb    -0.0004    -0.219    -0.078    -0.073  0.4230 -0.0308  0.9056
              Bcc     0.0469    25.000     8.921     8.339 -0.0839  0.9938  0.0730
 
              Baa    -0.0143    -7.625    -2.721    -2.544  0.5725  0.6811 -0.4564
     4 H(1)   Bbb     0.0012     0.654     0.234     0.218  0.7946 -0.5982  0.1039
              Bcc     0.0131     6.971     2.487     2.325  0.2022  0.4222  0.8837
 
              Baa    -0.3746   -50.269   -17.937   -16.768  0.7226  0.6712 -0.1654
     5 C(13)  Bbb    -0.3525   -47.299   -16.877   -15.777 -0.6146  0.7334  0.2906
              Bcc     0.7271    97.567    34.814    32.545  0.3163 -0.1083  0.9424
 
              Baa    -0.0451    -6.049    -2.159    -2.018  0.5739  0.2575  0.7774
     6 C(13)  Bbb     0.0198     2.659     0.949     0.887 -0.6754  0.6857  0.2715
              Bcc     0.0253     3.391     1.210     1.131  0.4631  0.6808 -0.5674
 
              Baa    -0.0504   -26.903    -9.600    -8.974  0.8084  0.5570 -0.1904
     7 H(1)   Bbb     0.0020     1.084     0.387     0.362  0.2882 -0.0924  0.9531
              Bcc     0.0484    25.819     9.213     8.612 -0.5133  0.8254  0.2352
 
              Baa    -0.0131    -6.971    -2.487    -2.325  0.2021  0.4222  0.8837
     8 H(1)   Bbb    -0.0012    -0.653    -0.233    -0.218  0.7946 -0.5981  0.1040
              Bcc     0.0143     7.624     2.721     2.543  0.5725  0.6812 -0.4564
 
              Baa    -0.0195    -2.619    -0.934    -0.874  0.6868  0.3185  0.6534
     9 C(13)  Bbb    -0.0021    -0.277    -0.099    -0.092 -0.3394 -0.6544  0.6757
              Bcc     0.0216     2.896     1.033     0.966 -0.6428  0.6858  0.3413
 
              Baa    -0.0080    -4.260    -1.520    -1.421  0.7226  0.3709  0.5834
    10 H(1)   Bbb    -0.0004    -0.208    -0.074    -0.070  0.6787 -0.5410 -0.4967
              Bcc     0.0084     4.469     1.595     1.491  0.1314  0.7548 -0.6426
 
              Baa    -0.0135    -7.214    -2.574    -2.406  0.8135 -0.1802  0.5529
    11 H(1)   Bbb     0.0037     1.993     0.711     0.665 -0.4047  0.5074  0.7608
              Bcc     0.0098     5.221     1.863     1.741  0.4176  0.8427 -0.3398
 
              Baa    -0.2297   -30.830   -11.001   -10.284  0.3463 -0.0857  0.9342
    12 C(13)  Bbb     0.0932    12.513     4.465     4.174  0.4484  0.8898 -0.0846
              Bcc     0.1365    18.317     6.536     6.110  0.8240 -0.4482 -0.3465
 
              Baa    -0.0090    -4.813    -1.717    -1.605  0.4136  0.0325  0.9099
    13 H(1)   Bbb    -0.0058    -3.079    -1.099    -1.027  0.4028  0.8897 -0.2149
              Bcc     0.0148     7.891     2.816     2.632  0.8165 -0.4554 -0.3548
 
              Baa    -0.3609   -48.424   -17.279   -16.153 -0.0967  0.9924  0.0756
    14 C(13)  Bbb    -0.3486   -46.782   -16.693   -15.605  0.9091  0.1190 -0.3991
              Bcc     0.7095    95.206    33.972    31.757  0.4051 -0.0301  0.9138
 
              Baa    -0.0469   -25.003    -8.922    -8.340 -0.0839  0.9938  0.0730
    15 H(1)   Bbb     0.0004     0.219     0.078     0.073  0.4231 -0.0308  0.9056
              Bcc     0.0464    24.783     8.843     8.267  0.9022  0.1068 -0.4179
 
              Baa    -0.0094    -1.256    -0.448    -0.419  0.8765 -0.1519 -0.4567
    16 C(13)  Bbb     0.0031     0.420     0.150     0.140  0.1224  0.9880 -0.0937
              Bcc     0.0062     0.836     0.298     0.279  0.4655  0.0263  0.8846
 
              Baa    -0.0095    -5.084    -1.814    -1.696  0.9727 -0.2228 -0.0643
    17 H(1)   Bbb    -0.0035    -1.848    -0.659    -0.616 -0.0323 -0.4046  0.9139
              Bcc     0.0130     6.932     2.473     2.312  0.2297  0.8869  0.4008
 
              Baa    -0.0074    -3.970    -1.417    -1.324  0.8918  0.1728  0.4182
    18 H(1)   Bbb    -0.0044    -2.326    -0.830    -0.776 -0.4366  0.0854  0.8956
              Bcc     0.0118     6.296     2.247     2.100 -0.1191  0.9812 -0.1516
 
              Baa    -0.7273   -97.592   -34.823   -32.553  0.3164 -0.1083  0.9424
    19 C(13)  Bbb     0.3526    47.311    16.882    15.781 -0.6145  0.7334  0.2906
              Bcc     0.3747    50.281    17.942    16.772  0.7227  0.6711 -0.1655
 
              Baa    -0.0484   -25.826    -9.215    -8.615 -0.5132  0.8253  0.2354
    20 H(1)   Bbb    -0.0020    -1.084    -0.387    -0.362  0.2883 -0.0926  0.9531
              Bcc     0.0504    26.910     9.602     8.976  0.8084  0.5570 -0.1904
 
              Baa    -0.1365   -18.320    -6.537    -6.111  0.8241 -0.4481 -0.3466
    21 C(13)  Bbb    -0.0933   -12.516    -4.466    -4.175  0.4484  0.8898 -0.0845
              Bcc     0.2298    30.837    11.003    10.286  0.3463 -0.0857  0.9342
 
              Baa    -0.0148    -7.893    -2.816    -2.633  0.8166 -0.4552 -0.3548
    22 H(1)   Bbb     0.0058     3.080     1.099     1.027  0.4024  0.8898 -0.2153
              Bcc     0.0090     4.813     1.717     1.605  0.4137  0.0330  0.9098
 
              Baa    -0.0216    -2.896    -1.033    -0.966 -0.6429  0.6859  0.3409
    23 C(13)  Bbb     0.0021     0.277     0.099     0.092 -0.3395 -0.6541  0.6760
              Bcc     0.0195     2.619     0.934     0.873  0.6866  0.3188  0.6534
 
              Baa    -0.0098    -5.219    -1.862    -1.741  0.4175  0.8427 -0.3398
    24 H(1)   Bbb    -0.0037    -1.992    -0.711    -0.665 -0.4047  0.5073  0.7608
              Bcc     0.0135     7.212     2.573     2.406  0.8135 -0.1801  0.5529
 
              Baa    -0.0084    -4.469    -1.595    -1.491  0.1313  0.7549 -0.6426
    25 H(1)   Bbb     0.0004     0.208     0.074     0.069  0.6786 -0.5410 -0.4968
              Bcc     0.0080     4.261     1.520     1.421  0.7226  0.3708  0.5833
 
              Baa    -0.0062    -0.834    -0.297    -0.278  0.4656  0.0238  0.8847
    26 C(13)  Bbb    -0.0031    -0.421    -0.150    -0.141  0.1234  0.9881 -0.0915
              Bcc     0.0094     1.255     0.448     0.419  0.8763 -0.1518 -0.4571
 
              Baa    -0.0118    -6.296    -2.246    -2.100 -0.1191  0.9812 -0.1516
    27 H(1)   Bbb     0.0044     2.327     0.830     0.776 -0.4367  0.0854  0.8956
              Bcc     0.0074     3.969     1.416     1.324  0.8917  0.1729  0.4183
 
              Baa    -0.0130    -6.931    -2.473    -2.312  0.2296  0.8870  0.4007
    28 H(1)   Bbb     0.0035     1.849     0.660     0.617 -0.0324 -0.4045  0.9140
              Bcc     0.0095     5.082     1.813     1.695  0.9727 -0.2229 -0.0642
 

 ---------------------------------------------------------------------------------

 No NMR shielding tensors so no spin-rotation constants.
 Leave Link  601 at Tue Aug  4 20:57:24 2020, MaxMem=  6442450944 cpu:               8.1 elap:               0.4
 (Enter /scratch/scicomp/CentOS/7.3.1611/Haswell/software/Gaussian/g16/l9999.exe)
 1\1\GINC-ATLAS-205\SP\UwB97XD\def2TZVP\C12H16\BOCHEN\04-Aug-2020\0\\#p
  uwb97xd guess=mix def2tzvp # scrf=(iefpcm,solvent=Cyclohexane,read) n
 osym 6d 10f\\endo-2 xp-pcm for eta=3\\0,1\C,0,-3.130926,-0.423925,0.23
 0614\C,0,-0.402668,-0.125188,-0.661714\H,0,-4.121721,-0.544101,0.65102
 \H,0,0.324925,-0.126026,-1.477873\C,0,1.104701,1.443859,0.614659\C,0,0
 .402668,0.125188,0.661714\H,0,0.570306,2.342088,0.897018\H,0,-0.324925
 ,0.126026,1.477873\C,0,1.426074,-0.983719,0.936566\H,0,1.827679,-0.830
 304,1.941515\H,0,0.940037,-1.960429,0.934664\C,0,2.402045,1.533898,0.1
 42597\H,0,2.860563,2.512891,0.05474\C,0,3.130926,0.423925,-0.230614\H,
 0,4.121721,0.544101,-0.65102\C,0,2.584558,-0.957939,-0.060346\H,0,2.25
 8123,-1.348285,-1.033742\H,0,3.376997,-1.634728,0.270453\C,0,-1.104701
 ,-1.443859,-0.614659\H,0,-0.570306,-2.342088,-0.897018\C,0,-2.402045,-
 1.533898,-0.142597\H,0,-2.860563,-2.512891,-0.05474\C,0,-1.426074,0.98
 3719,-0.936566\H,0,-0.940037,1.960429,-0.934664\H,0,-1.827679,0.830304
 ,-1.941515\C,0,-2.584558,0.957939,0.060346\H,0,-3.376997,1.634728,-0.2
 70453\H,0,-2.258122,1.348285,1.033742\\Version=ES64L-G16RevB.01\HF=-46
 6.7879492\S2=1.057965\S2-1=0.\S2A=0.551488\RMSD=8.809e-09\Dipole=-0.00
 05887,-0.0005028,-0.00029\Quadrupole=1.2835612,1.3747904,-2.6583516,-1
 .7408844,-1.8843774,0.1741141\PG=CI [X(C12H16)]\\@


 OF ALL THE WONDERS OF THE UNIVERSE, THE GREATEST IS MAN.

                                    -- ARISTOTLE
 Job cpu time:       0 days  1 hours 47 minutes 59.0 seconds.
 Elapsed time:       0 days  0 hours  4 minutes 33.0 seconds.
 File lengths (MBytes):  RWF=    625 Int=      0 D2E=      0 Chk=     24 Scr=      1
 Normal termination of Gaussian 16 at Tue Aug  4 20:57:24 2020.
