 Entering Gaussian System, Link 0=g16
 Input=meso-TS_43_2_xp-Ger.com
 Output=meso-TS_43_2_xp-Ger.log
 Initial command:
 /scratch/scicomp/CentOS/7.3.1611/Haswell/software/Gaussian/g16/l1.exe "/scratch/bochen/cyclohexadiene-dimerization/wb97xd-def2tzvp/xp-pcm/meso/Gau-280562.inp" -scrdir="/scratch/bochen/cyclohexadiene-dimerization/wb97xd-def2tzvp/xp-pcm/meso/"
 Entering Link 1 = /scratch/scicomp/CentOS/7.3.1611/Haswell/software/Gaussian/g16/l1.exe PID=    280563.
  
 Copyright (c) 1988-2017, Gaussian, Inc.  All Rights Reserved.
  
 This is part of the Gaussian(R) 16 program.  It is based on
 the Gaussian(R) 09 system (copyright 2009, Gaussian, Inc.),
 the Gaussian(R) 03 system (copyright 2003, Gaussian, Inc.),
 the Gaussian(R) 98 system (copyright 1998, Gaussian, Inc.),
 the Gaussian(R) 94 system (copyright 1995, Gaussian, Inc.),
 the Gaussian 92(TM) system (copyright 1992, Gaussian, Inc.),
 the Gaussian 90(TM) system (copyright 1990, Gaussian, Inc.),
 the Gaussian 88(TM) system (copyright 1988, Gaussian, Inc.),
 the Gaussian 86(TM) system (copyright 1986, Carnegie Mellon
 University), and the Gaussian 82(TM) system (copyright 1983,
 Carnegie Mellon University). Gaussian is a federally registered
 trademark of Gaussian, Inc.
  
 This software contains proprietary and confidential information,
 including trade secrets, belonging to Gaussian, Inc.
  
 This software is provided under written license and may be
 used, copied, transmitted, or stored only in accord with that
 written license.
  
 The following legend is applicable only to US Government
 contracts under FAR:
  
                    RESTRICTED RIGHTS LEGEND
  
 Use, reproduction and disclosure by the US Government is
 subject to restrictions as set forth in subparagraphs (a)
 and (c) of the Commercial Computer Software - Restricted
 Rights clause in FAR 52.227-19.
  
 Gaussian, Inc.
 340 Quinnipiac St., Bldg. 40, Wallingford CT 06492
  
  
 ---------------------------------------------------------------
 Warning -- This program may not be used in any manner that
 competes with the business of Gaussian, Inc. or will provide
 assistance to any competitor of Gaussian, Inc.  The licensee
 of this program is prohibited from giving any competitor of
 Gaussian, Inc. access to this program.  By using this program,
 the user acknowledges that Gaussian, Inc. is engaged in the
 business of creating and licensing software in the field of
 computational chemistry and represents and warrants to the
 licensee that it is not a competitor of Gaussian, Inc. and that
 it will not use this program in any manner prohibited above.
 ---------------------------------------------------------------
  

 Cite this work as:
 Gaussian 16, Revision B.01,
 M. J. Frisch, G. W. Trucks, H. B. Schlegel, G. E. Scuseria, 
 M. A. Robb, J. R. Cheeseman, G. Scalmani, V. Barone, 
 G. A. Petersson, H. Nakatsuji, X. Li, M. Caricato, A. V. Marenich, 
 J. Bloino, B. G. Janesko, R. Gomperts, B. Mennucci, H. P. Hratchian, 
 J. V. Ortiz, A. F. Izmaylov, J. L. Sonnenberg, D. Williams-Young, 
 F. Ding, F. Lipparini, F. Egidi, J. Goings, B. Peng, A. Petrone, 
 T. Henderson, D. Ranasinghe, V. G. Zakrzewski, J. Gao, N. Rega, 
 G. Zheng, W. Liang, M. Hada, M. Ehara, K. Toyota, R. Fukuda, 
 J. Hasegawa, M. Ishida, T. Nakajima, Y. Honda, O. Kitao, H. Nakai, 
 T. Vreven, K. Throssell, J. A. Montgomery, Jr., J. E. Peralta, 
 F. Ogliaro, M. J. Bearpark, J. J. Heyd, E. N. Brothers, K. N. Kudin, 
 V. N. Staroverov, T. A. Keith, R. Kobayashi, J. Normand, 
 K. Raghavachari, A. P. Rendell, J. C. Burant, S. S. Iyengar, 
 J. Tomasi, M. Cossi, J. M. Millam, M. Klene, C. Adamo, R. Cammi, 
 J. W. Ochterski, R. L. Martin, K. Morokuma, O. Farkas, 
 J. B. Foresman, and D. J. Fox, Gaussian, Inc., Wallingford CT, 2016.
 
 ******************************************
 Gaussian 16:  ES64L-G16RevB.01 20-Dec-2017
                 4-Aug-2020 
 ******************************************
 %chk=meso-TS_43_2_xp-12.chk
 %nproc=24
 Will use up to   24 processors via shared memory.
 %mem=48GB
 ----------------------------------------------------------------------
 #p uwb97xd guess=mix def2tzvp # scrf=(iefpcm,solvent=Cyclohexane,read)
  nosym 6d 10f
 ----------------------------------------------------------------------
 1/38=1,40=2,172=1/1;
 2/12=2,15=1,17=6,18=5,40=1/2;
 3/5=44,7=101,8=22,11=2,25=1,30=1,70=2203,72=17,74=-58,116=2/1,2,3;
 4/13=-1/1;
 5/5=2,38=5,53=17/2;
 6/7=2,8=2,9=2,10=2,28=1/1;
 99/5=1,9=1/99;
 Leave Link    1 at Tue Aug  4 03:58:38 2020, MaxMem=  6442450944 cpu:               2.4 elap:               0.1
 (Enter /scratch/scicomp/CentOS/7.3.1611/Haswell/software/Gaussian/g16/l101.exe)
 -----------------------
 endo-2 xp-pcm for eta=3
 -----------------------
 Symbolic Z-matrix:
 Charge =  0 Multiplicity = 1
 6                    -3.12738  -0.4412    0.25695 
 6                    -0.69651  -0.2427   -1.18434 
 1                    -4.07908  -0.53852   0.7665 
 1                     0.26436  -0.15591  -1.67548 
 6                     1.14464   1.42119   0.76251 
 6                     0.69651   0.2427    1.18434 
 1                     0.55123   2.31787   0.89388 
 1                    -0.26436   0.15591   1.67548 
 6                     1.53593  -0.99774   1.08164 
 1                     2.04315  -1.12432   2.04652 
 1                     0.89882  -1.8736    0.96055 
 6                     2.4466    1.52719   0.10551 
 1                     2.84835   2.51348  -0.09397 
 6                     3.12738   0.4412   -0.25695 
 1                     4.07908   0.53852  -0.7665 
 6                     2.58115  -0.94349  -0.03837 
 1                     2.15004  -1.29813  -0.98272 
 1                     3.39465  -1.63541   0.18847 
 6                    -1.14464  -1.42119  -0.76251 
 1                    -0.55123  -2.31787  -0.89388 
 6                    -2.4466   -1.52719  -0.10551 
 1                    -2.84835  -2.51348   0.09397 
 6                    -1.53593   0.99774  -1.08164 
 1                    -0.89882   1.8736   -0.96055 
 1                    -2.04315   1.12432  -2.04652 
 6                    -2.58115   0.94349   0.03837 
 1                    -3.39465   1.63541  -0.18847 
 1                    -2.15004   1.29813   0.98272 
 
 ITRead=  0  0  0  0  0  0  0  0  0  0  0  0  0  0  0  0  0  0  0  0
 ITRead=  0  0  0  0  0  0  0  0
 MicOpt= -1 -1 -1 -1 -1 -1 -1 -1 -1 -1 -1 -1 -1 -1 -1 -1 -1 -1 -1 -1
 MicOpt= -1 -1 -1 -1 -1 -1 -1 -1
 NAtoms=     28 NQM=       28 NQMF=       0 NMMI=      0 NMMIF=      0
                NMic=       0 NMicF=      0.
                    Isotopes and Nuclear Properties:
 (Nuclear quadrupole moments (NQMom) in fm**2, nuclear magnetic moments (NMagM)
  in nuclear magnetons)

  Atom         1           2           3           4           5           6           7           8           9          10
 IAtWgt=          12          12           1           1          12          12           1           1          12           1
 AtmWgt=  12.0000000  12.0000000   1.0078250   1.0078250  12.0000000  12.0000000   1.0078250   1.0078250  12.0000000   1.0078250
 NucSpn=           0           0           1           1           0           0           1           1           0           1
 AtZEff=  -0.0000000  -0.0000000  -0.0000000  -0.0000000  -0.0000000  -0.0000000  -0.0000000  -0.0000000  -0.0000000  -0.0000000
 NQMom=    0.0000000   0.0000000   0.0000000   0.0000000   0.0000000   0.0000000   0.0000000   0.0000000   0.0000000   0.0000000
 NMagM=    0.0000000   0.0000000   2.7928460   2.7928460   0.0000000   0.0000000   2.7928460   2.7928460   0.0000000   2.7928460
 AtZNuc=   6.0000000   6.0000000   1.0000000   1.0000000   6.0000000   6.0000000   1.0000000   1.0000000   6.0000000   1.0000000

  Atom        11          12          13          14          15          16          17          18          19          20
 IAtWgt=           1          12           1          12           1          12           1           1          12           1
 AtmWgt=   1.0078250  12.0000000   1.0078250  12.0000000   1.0078250  12.0000000   1.0078250   1.0078250  12.0000000   1.0078250
 NucSpn=           1           0           1           0           1           0           1           1           0           1
 AtZEff=  -0.0000000  -0.0000000  -0.0000000  -0.0000000  -0.0000000  -0.0000000  -0.0000000  -0.0000000  -0.0000000  -0.0000000
 NQMom=    0.0000000   0.0000000   0.0000000   0.0000000   0.0000000   0.0000000   0.0000000   0.0000000   0.0000000   0.0000000
 NMagM=    2.7928460   0.0000000   2.7928460   0.0000000   2.7928460   0.0000000   2.7928460   2.7928460   0.0000000   2.7928460
 AtZNuc=   1.0000000   6.0000000   1.0000000   6.0000000   1.0000000   6.0000000   1.0000000   1.0000000   6.0000000   1.0000000

  Atom        21          22          23          24          25          26          27          28
 IAtWgt=          12           1          12           1           1          12           1           1
 AtmWgt=  12.0000000   1.0078250  12.0000000   1.0078250   1.0078250  12.0000000   1.0078250   1.0078250
 NucSpn=           0           1           0           1           1           0           1           1
 AtZEff=  -0.0000000  -0.0000000  -0.0000000  -0.0000000  -0.0000000  -0.0000000  -0.0000000  -0.0000000
 NQMom=    0.0000000   0.0000000   0.0000000   0.0000000   0.0000000   0.0000000   0.0000000   0.0000000
 NMagM=    0.0000000   2.7928460   0.0000000   2.7928460   2.7928460   0.0000000   2.7928460   2.7928460
 AtZNuc=   6.0000000   1.0000000   6.0000000   1.0000000   1.0000000   6.0000000   1.0000000   1.0000000
 Leave Link  101 at Tue Aug  4 03:58:38 2020, MaxMem=  6442450944 cpu:               2.4 elap:               0.1
 (Enter /scratch/scicomp/CentOS/7.3.1611/Haswell/software/Gaussian/g16/l202.exe)
                          Input orientation:                          
 ---------------------------------------------------------------------
 Center     Atomic      Atomic             Coordinates (Angstroms)
 Number     Number       Type             X           Y           Z
 ---------------------------------------------------------------------
      1          6           0       -3.127383   -0.441200    0.256946
      2          6           0       -0.696508   -0.242696   -1.184341
      3          1           0       -4.079078   -0.538518    0.766502
      4          1           0        0.264362   -0.155913   -1.675481
      5          6           0        1.144636    1.421194    0.762509
      6          6           0        0.696508    0.242696    1.184341
      7          1           0        0.551234    2.317867    0.893879
      8          1           0       -0.264362    0.155913    1.675481
      9          6           0        1.535929   -0.997742    1.081645
     10          1           0        2.043151   -1.124317    2.046516
     11          1           0        0.898815   -1.873600    0.960552
     12          6           0        2.446597    1.527191    0.105512
     13          1           0        2.848349    2.513477   -0.093966
     14          6           0        3.127383    0.441200   -0.256946
     15          1           0        4.079078    0.538518   -0.766502
     16          6           0        2.581145   -0.943485   -0.038369
     17          1           0        2.150037   -1.298130   -0.982721
     18          1           0        3.394647   -1.635414    0.188466
     19          6           0       -1.144636   -1.421194   -0.762509
     20          1           0       -0.551234   -2.317867   -0.893879
     21          6           0       -2.446597   -1.527191   -0.105512
     22          1           0       -2.848349   -2.513477    0.093966
     23          6           0       -1.535929    0.997742   -1.081645
     24          1           0       -0.898815    1.873600   -0.960552
     25          1           0       -2.043151    1.124317   -2.046516
     26          6           0       -2.581145    0.943485    0.038369
     27          1           0       -3.394647    1.635414   -0.188467
     28          1           0       -2.150037    1.298130    0.982721
 ---------------------------------------------------------------------
                    Distance matrix (angstroms):
                    1          2          3          4          5
     1  C    0.000000
     2  C    2.832996   0.000000
     3  H    1.083901   3.916003   0.000000
     4  H    3.914026   1.082599   4.997513   0.000000
     5  C    4.687670   3.154135   5.579218   3.034130   0.000000
     6  C    3.993735   2.790475   4.857068   2.919627   1.329518
     7  H    4.642236   3.525953   5.441962   3.578197   1.083239
     8  H    3.250488   2.919627   3.982529   3.406718   2.102315
     9  C    4.768264   3.269337   5.642562   3.150762   2.471075
    10  H    5.513949   4.326826   6.281981   4.237353   2.989252
    11  H    4.330947   3.131369   5.157472   3.209618   3.309882
    12  C    5.913269   3.830839   6.876663   3.281299   1.462184
    13  H    6.675525   4.620760   7.618683   4.037799   2.197560
    14  C    6.337571   3.993735   7.344411   3.250488   2.435357
    15  H    7.344411   4.857068   8.370521   3.982529   3.424608
    16  C    5.738187   3.542226   6.720892   2.944128   2.880394
    17  H    5.488375   3.042599   6.514497   2.310919   3.383989
    18  H    6.630815   4.534513   7.575874   3.932163   3.838610
    19  C    2.435357   1.329518   3.424608   2.102315   3.955454
    20  H    3.388631   2.100430   4.285864   2.439292   4.427208
    21  C    1.331999   2.424172   2.098303   3.419723   4.726879
    22  H    2.097321   3.379487   2.422284   4.286959   5.645575
    23  C    2.528855   1.501286   3.499050   2.219146   3.281104
    24  H    3.436148   2.137690   4.349150   2.446023   2.710960
    25  H    2.988702   2.103691   3.850077   2.664821   4.259195
    26  C    1.504495   2.540453   2.229420   3.498981   3.825445
    27  H    2.140595   3.434970   2.471111   4.336866   4.642772
    28  H    2.123022   3.030355   2.672307   3.874223   3.304317
                    6          7          8          9         10
     6  C    0.000000
     7  H    2.100430   0.000000
     8  H    1.082599   2.439292   0.000000
     9  C    1.501286   3.463834   2.219146   0.000000
    10  H    2.103691   3.924668   2.664821   1.097393   0.000000
    11  H    2.137690   4.206382   2.446023   1.089819   1.746496
    12  C    2.424172   2.199794   3.419723   2.856123   3.310704
    13  H    3.379487   2.508154   4.286959   3.928507   4.296924
    14  C    2.832996   3.388631   3.914026   2.528855   2.988702
    15  H    3.916003   4.285864   4.997513   3.499050   3.850077
    16  C    2.540453   3.952979   3.498981   1.532923   2.160760
    17  H    3.030355   4.376441   3.874223   2.174619   3.036102
    18  H    3.434970   4.920471   4.336867   2.158524   2.353744
    19  C    3.154135   4.427208   3.034130   3.281104   4.259195
    20  H    3.525953   5.089356   3.578197   3.162542   4.098941
    21  C    3.830839   4.976971   3.281299   4.189292   4.995135
    22  H    4.620760   5.961452   4.037799   4.742874   5.446925
    23  C    3.269337   3.162542   3.150762   4.254185   5.205607
    24  H    3.131369   2.395606   3.209618   4.282891   5.165765
    25  H    4.326826   4.098941   4.237353   5.205607   6.205411
    26  C    3.542226   3.525992   2.944128   4.669806   5.449089
    27  H    4.534514   4.148155   3.932163   5.732127   6.494683
    28  H    3.042599   2.888706   2.310919   4.343634   4.958098
                   11         12         13         14         15
    11  H    0.000000
    12  C    3.833028   0.000000
    13  H    4.915194   1.083493   0.000000
    14  C    3.436148   1.331999   2.097321   0.000000
    15  H    4.349150   2.098303   2.422284   1.083901   0.000000
    16  C    2.166377   2.478517   3.467719   1.504495   2.229420
    17  H    2.381813   3.042144   3.975660   2.123022   2.672307
    18  H    2.623362   3.302688   4.194223   2.140595   2.471111
    19  C    2.710960   4.726879   5.645575   4.687670   5.579218
    20  H    2.395606   4.976971   5.961452   4.642236   5.441962
    21  C    3.528211   5.772099   6.660599   5.913269   6.876663
    22  H    3.898930   6.660599   7.599865   6.675525   7.618683
    23  C    4.282891   4.189292   4.742874   4.768264   5.642562
    24  H    4.578605   3.528211   3.898930   4.330947   5.157472
    25  H    5.165765   4.995135   5.446925   5.513949   6.281981
    26  C    4.571270   5.061957   5.653476   5.738187   6.720892
    27  H    5.662794   5.849638   6.305151   6.630815   7.575874
    28  H    4.399530   4.685190   5.255491   5.488375   6.514497
                   16         17         18         19         20
    16  C    0.000000
    17  H    1.097009   0.000000
    18  H    1.091790   1.741980   0.000000
    19  C    3.825445   3.304317   4.642772   0.000000
    20  H    3.525992   2.888706   4.148155   1.083239   0.000000
    21  C    5.061957   4.685190   5.849638   1.462184   2.199794
    22  H    5.653476   5.255491   6.305151   2.197560   2.508154
    23  C    4.669806   4.343634   5.732126   2.471075   3.463834
    24  H    4.571270   4.399530   5.662794   3.309882   4.206382
    25  H    5.449089   4.958098   6.494683   2.989252   3.924668
    26  C    5.496888   5.333999   6.510249   2.880394   3.952979
    27  H    6.510249   6.322977   7.545522   3.838610   4.920471
    28  H    5.333999   5.393901   6.322977   3.383989   4.376441
                   21         22         23         24         25
    21  C    0.000000
    22  H    1.083493   0.000000
    23  C    2.856123   3.928507   0.000000
    24  H    3.833028   4.915194   1.089819   0.000000
    25  H    3.310704   4.296924   1.097393   1.746496   0.000000
    26  C    2.478517   3.467719   1.532923   2.166377   2.160760
    27  H    3.302688   4.194223   2.158524   2.623361   2.353743
    28  H    3.042144   3.975660   2.174619   2.381813   3.036102
                   26         27         28
    26  C    0.000000
    27  H    1.091790   0.000000
    28  H    1.097009   1.741980   0.000000
 Symmetry turned off by external request.
 Stoichiometry    C12H16
 Framework group  CI[X(C12H16)]
 Deg. of freedom    39
 Full point group                 CI      NOp   2
 Rotational constants (GHZ):           1.7937670           0.6031513           0.5397262
 Leave Link  202 at Tue Aug  4 03:58:39 2020, MaxMem=  6442450944 cpu:               0.3 elap:               0.0
 (Enter /scratch/scicomp/CentOS/7.3.1611/Haswell/software/Gaussian/g16/l301.exe)
 Standard basis: def2TZVP (6D, 10F)
 Ernie: Thresh=  0.10000D-02 Tol=  0.10000D-05 Strict=F.
   528 basis functions,   740 primitive gaussians,   528 cartesian basis functions
    44 alpha electrons       44 beta electrons
       nuclear repulsion energy       679.2698202763 Hartrees.
 IExCor= 4639 DFT=T Ex+Corr=wB97XD ExCW=0 ScaHFX=  1.000000
 ScaDFX=  1.000000  1.000000  1.000000  1.000000 ScalE2=  1.000000  1.000000
 IRadAn=      5 IRanWt=     -1 IRanGd=            0 ICorTp=0 IEmpDi=121
 HFx  wShort=  0.000000 wLong=  0.200000 cFull=  0.222036 cShort=  0.000000 cLong=  0.777964
 DFx  wShort=  0.000000 wLong=  0.200000 cFull=  0.000000 cShort=  0.000000 cLong=  1.000000
 NAtoms=   28 NActive=   28 NUniq=   28 SFac= 1.00D+00 NAtFMM=   60 NAOKFM=F Big=F
 Integral buffers will be    131072 words long.
 Raffenetti 2 integral format.
 Two-electron integral symmetry is turned off.
 R6Disp:  Grimme-D2 Dispersion energy=       -0.0225391543 Hartrees.
 Nuclear repulsion after empirical dispersion term =      679.2472811219 Hartrees.
 Using the following non-standard input for PCM:
 qrep pcmdoc geomview  nodis nocav g03defaults tsare=0.075
 Warning! Using old PCM defaults because the g03defaults keyword was found.
 These settings can be overridden by following keywords.
 nsfe=28
 NVESolv=36  SolvMW=84.1595   Rsolv=2.815
 eps=2.0165 RhoS=0.778099999999998
 --- end of non-standard input.
 Reading user-defined spheres from input:
 ISph  on   Nord    Re0     Alpha      Xe            Ye            Ze
 --- end of user-defined spheres data.
 ------------------------------------------------------------------------------
 Polarizable Continuum Model (PCM)
 =================================
 Model                : PCM.
 Atomic radii         : UA0 (Simple United Atom Topological Model).
 Polarization charges : Total charges.
 Charge compensation  : None.
 Solution method      : On-the-fly selection.
 Cavity type          : SES (Solvent Excluding Surface) (Alpha=1.000).
 Cavity algorithm     : GePol (RMin=0.200 OFac=0.890).
                        User-defined sphere list used, NSphG=   28.
                        Tesserae with average area of 0.075 Ang**2.
                        Smoothing algorithm: None.
                        Polarization charges: point-like.
                        Self-potential: constant (ISelfS= 1).
                        Self-field    : global E.n sum rule (ISelfD= 3).
 Solvent              : CycloHexane, Eps=   2.016500 Eps(inf)=   2.035188
                        RSolv=   2.815000 Ang.
 ------------------------------------------------------------------------------
 GePol: Number of generator spheres                  =      28
 GePol: Total number of spheres                      =     188
 GePol: Number of exposed spheres                    =     135 ( 71.81%)
 GePol: Number of tesserae                           =    4699
 GePol: Average area of tesserae                     =       0.05 Ang**2
 GePol: Minimum area of tessera                      =   0.10D-02 Ang**2
 GePol: Maximum area of tessera                      =    0.12395 Ang**2
 GePol: Number of small tesserae                     =       0
 GePol: Fraction of small tesserae (<1% of avg)      =       0.00%
 GePol: Total count of vertices                      =   16672
 GePol: Maximum number of vertices in a tessera      =       8
 GePol: Cavity surface area                          =    221.166 Ang**2
 GePol: Cavity volume                                =    251.062 Ang**3
 Leave Link  301 at Tue Aug  4 03:58:39 2020, MaxMem=  6442450944 cpu:               8.1 elap:               0.4
 (Enter /scratch/scicomp/CentOS/7.3.1611/Haswell/software/Gaussian/g16/l302.exe)
 NPDir=0 NMtPBC=     1 NCelOv=     1 NCel=       1 NClECP=     1 NCelD=      1
         NCelK=      1 NCelE2=     1 NClLst=     1 CellRange=     0.0.
 One-electron integrals computed using PRISM.
   1 Symmetry operations used in ECPInt.
 ECPInt:  NShTT=   19306 NPrTT=   56928 LenC2=   18486 LenP2D=   41994.
 LDataN:  DoStor=T MaxTD1= 6 Len=  172
 NBasis=   528 RedAO= T EigKep=  1.80D-05  NBF=   528
 NBsUse=   528 1.00D-06 EigRej= -1.00D+00 NBFU=   528
 Precomputing XC quadrature grid using
 IXCGrd= 4 IRadAn=           5 IRanWt=          -1 IRanGd=           0 AccXCQ= 0.00D+00.
 Generated NRdTot=       0 NPtTot=           0 NUsed=           0 NTot=          32
 NSgBfM=   526   526   526   526   526 MxSgAt=    28 MxSgA2=    28.
 Leave Link  302 at Tue Aug  4 03:58:40 2020, MaxMem=  6442450944 cpu:              12.6 elap:               0.6
 (Enter /scratch/scicomp/CentOS/7.3.1611/Haswell/software/Gaussian/g16/l303.exe)
 DipDrv:  MaxL=1.
 Leave Link  303 at Tue Aug  4 03:58:40 2020, MaxMem=  6442450944 cpu:               1.6 elap:               0.1
 (Enter /scratch/scicomp/CentOS/7.3.1611/Haswell/software/Gaussian/g16/l401.exe)
 ExpMin= 9.52D-02 ExpMax= 1.36D+04 ExpMxC= 4.63D+02 IAcc=3 IRadAn=         5 AccDes= 0.00D+00
 Harris functional with IExCor= 4639 and IRadAn=       5 diagonalized for initial guess.
 HarFok:  IExCor= 4639 AccDes= 0.00D+00 IRadAn=         5 IDoV= 1 UseB2=F ITyADJ=14
 ICtDFT=  3500011 ScaDFX=  1.000000  1.000000  1.000000  1.000000
 FoFCou: FMM=F IPFlag=           0 FMFlag=      100000 FMFlg1=           0
         NFxFlg=           0 DoJE=T BraDBF=F KetDBF=T FulRan=T
         wScrn=  0.000000 ICntrl=       500 IOpCl=  0 I1Cent=   200000004 NGrid=           0
         NMat0=    1 NMatS0=      1 NMatT0=    0 NMatD0=    1 NMtDS0=    0 NMtDT0=    0
 Symmetry not used in FoFCou.
 Harris En= -444.653232975913    
 JPrj=0 DoOrth=F DoCkMO=T.
 Mixing orbitals, IMix= 1 IMixAn=  0 NRI=1 NE=   44 Coef=  7.07106781D-01  7.07106781D-01
 Mixing orbitals, IMix= 1 IMixAn=  0 NRI=1 NE=   44 Coef= -7.07106781D-01  7.07106781D-01
 Initial guess <Sx>= 0.0000 <Sy>= 0.0000 <Sz>= 0.0000 <S**2>= 1.0000 S= 0.6180
 Leave Link  401 at Tue Aug  4 03:58:42 2020, MaxMem=  6442450944 cpu:              48.6 elap:               2.1
 (Enter /scratch/scicomp/CentOS/7.3.1611/Haswell/software/Gaussian/g16/l502.exe)
 Two-electron integral symmetry not used.
 UHF open shell SCF:
 Using DIIS extrapolation, IDIIS=  1040.
 NGot=  6442450944 LenX=  6441877030 LenY=  6441597718
 Requested convergence on RMS density matrix=1.00D-08 within 128 cycles.
 Requested convergence on MAX density matrix=1.00D-06.
 Requested convergence on             energy=1.00D-06.
 No special actions if energy rises.
 Fock matrices will be formed incrementally for  20 cycles.

 Cycle   1  Pass 1  IDiag  1:
 FoFJK:  IHMeth= 1 ICntrl=       0 DoSepK=T KAlg= 0 I1Cent=           0 FoldK=F
 IRaf=         1 NMat=       1 IRICut=       1 DoRegI=T DoRafI=F ISym2E= 0 IDoP0=0 IntGTp=1.
 FoFCou: FMM=F IPFlag=           0 FMFlag=      100000 FMFlg1=           0
         NFxFlg=           0 DoJE=T BraDBF=F KetDBF=F FulRan=T
         wScrn=  0.000000 ICntrl=       500 IOpCl=  0 I1Cent=           0 NGrid=           0
         NMat0=    1 NMatS0=      1 NMatT0=    0 NMatD0=    1 NMtDS0=    0 NMtDT0=    0
 Symmetry not used in FoFCou.
 Inv3:  Mode=1 IEnd=    66241803.
 Iteration    1 A*A^-1 deviation from unit magnitude is 3.66D-15 for   3620.
 Iteration    1 A*A^-1 deviation from orthogonality  is 1.89D-15 for   2350   1348.
 Iteration    1 A^-1*A deviation from unit magnitude is 3.44D-15 for   3620.
 Iteration    1 A^-1*A deviation from orthogonality  is 2.55D-15 for   4219   1875.
 E= -466.572242947932    
 DIIS: error= 4.87D-02 at cycle   1 NSaved=   1.
 NSaved= 1 IEnMin= 1 EnMin= -466.572242947932     IErMin= 1 ErrMin= 4.87D-02
 ErrMax= 4.87D-02  0.00D+00 EMaxC= 1.00D-01 BMatC= 4.11D+00 BMatP= 4.11D+00
 IDIUse=3 WtCom= 5.13D-01 WtEn= 4.87D-01
 Coeff-Com:  0.100D+01
 Coeff-En:   0.100D+01
 Coeff:      0.100D+01
 Gap=     0.183 Goal=   None    Shift=    0.000
 Gap=     0.183 Goal=   None    Shift=    0.000
 GapD=    0.183 DampG=1.000 DampE=0.500 DampFc=0.5000 IDamp=-1.
 Damping current iteration by 5.00D-01
 RMSDP=1.70D-03 MaxDP=9.27D-02              OVMax= 3.39D-01

 Cycle   2  Pass 1  IDiag  1:
 RMSU=  8.21D-04    CP:  9.65D-01
 E= -466.681531931565     Delta-E=       -0.109288983633 Rises=F Damp=T
 DIIS: error= 2.31D-02 at cycle   2 NSaved=   2.
 NSaved= 2 IEnMin= 2 EnMin= -466.681531931565     IErMin= 2 ErrMin= 2.31D-02
 ErrMax= 2.31D-02  0.00D+00 EMaxC= 1.00D-01 BMatC= 9.35D-01 BMatP= 4.11D+00
 IDIUse=3 WtCom= 7.69D-01 WtEn= 2.31D-01
 Coeff-Com: -0.869D+00 0.187D+01
 Coeff-En:   0.000D+00 0.100D+01
 Coeff:     -0.668D+00 0.167D+01
 Gap=     0.274 Goal=   None    Shift=    0.000
 Gap=     0.274 Goal=   None    Shift=    0.000
 RMSDP=1.21D-03 MaxDP=5.05D-02 DE=-1.09D-01 OVMax= 1.40D-01

 Cycle   3  Pass 1  IDiag  1:
 RMSU=  6.09D-04    CP:  9.13D-01  2.22D+00
 E= -466.823903371821     Delta-E=       -0.142371440257 Rises=F Damp=F
 DIIS: error= 7.72D-03 at cycle   3 NSaved=   3.
 NSaved= 3 IEnMin= 3 EnMin= -466.823903371821     IErMin= 3 ErrMin= 7.72D-03
 ErrMax= 7.72D-03  0.00D+00 EMaxC= 1.00D-01 BMatC= 2.45D-02 BMatP= 9.35D-01
 IDIUse=3 WtCom= 9.23D-01 WtEn= 7.72D-02
 Coeff-Com: -0.321D+00 0.688D+00 0.633D+00
 Coeff-En:   0.000D+00 0.000D+00 0.100D+01
 Coeff:     -0.296D+00 0.635D+00 0.662D+00
 Gap=     0.295 Goal=   None    Shift=    0.000
 Gap=     0.295 Goal=   None    Shift=    0.000
 RMSDP=2.29D-04 MaxDP=1.21D-02 DE=-1.42D-01 OVMax= 6.46D-02

 Cycle   4  Pass 1  IDiag  1:
 RMSU=  2.12D-04    CP:  9.06D-01  2.30D+00  1.00D+00
 E= -466.834862621631     Delta-E=       -0.010959249810 Rises=F Damp=F
 DIIS: error= 5.17D-03 at cycle   4 NSaved=   4.
 NSaved= 4 IEnMin= 4 EnMin= -466.834862621631     IErMin= 4 ErrMin= 5.17D-03
 ErrMax= 5.17D-03  0.00D+00 EMaxC= 1.00D-01 BMatC= 2.14D-03 BMatP= 2.45D-02
 IDIUse=3 WtCom= 9.48D-01 WtEn= 5.17D-02
 Coeff-Com:  0.140D+00-0.301D+00-0.653D-01 0.123D+01
 Coeff-En:   0.000D+00 0.000D+00 0.000D+00 0.100D+01
 Coeff:      0.133D+00-0.285D+00-0.619D-01 0.121D+01
 Gap=     0.307 Goal=   None    Shift=    0.000
 Gap=     0.307 Goal=   None    Shift=    0.000
 RMSDP=2.27D-04 MaxDP=1.24D-02 DE=-1.10D-02 OVMax= 7.92D-02

 Cycle   5  Pass 1  IDiag  1:
 RMSU=  9.20D-05    CP:  8.99D-01  2.36D+00  1.23D+00  1.64D+00
 E= -466.839722438421     Delta-E=       -0.004859816790 Rises=F Damp=F
 DIIS: error= 2.45D-03 at cycle   5 NSaved=   5.
 NSaved= 5 IEnMin= 5 EnMin= -466.839722438421     IErMin= 5 ErrMin= 2.45D-03
 ErrMax= 2.45D-03  0.00D+00 EMaxC= 1.00D-01 BMatC= 9.34D-04 BMatP= 2.14D-03
 IDIUse=3 WtCom= 9.76D-01 WtEn= 2.45D-02
 Coeff-Com:  0.750D-01-0.161D+00-0.798D-01 0.423D+00 0.743D+00
 Coeff-En:   0.000D+00 0.000D+00 0.000D+00 0.000D+00 0.100D+01
 Coeff:      0.732D-01-0.157D+00-0.778D-01 0.412D+00 0.749D+00
 Gap=     0.309 Goal=   None    Shift=    0.000
 Gap=     0.309 Goal=   None    Shift=    0.000
 RMSDP=8.26D-05 MaxDP=3.88D-03 DE=-4.86D-03 OVMax= 2.93D-02

 Cycle   6  Pass 1  IDiag  1:
 RMSU=  3.27D-05    CP:  8.97D-01  2.36D+00  1.28D+00  1.93D+00  1.38D+00
 E= -466.841145069765     Delta-E=       -0.001422631344 Rises=F Damp=F
 DIIS: error= 1.80D-03 at cycle   6 NSaved=   6.
 NSaved= 6 IEnMin= 6 EnMin= -466.841145069765     IErMin= 6 ErrMin= 1.80D-03
 ErrMax= 1.80D-03  0.00D+00 EMaxC= 1.00D-01 BMatC= 5.44D-04 BMatP= 9.34D-04
 IDIUse=3 WtCom= 9.82D-01 WtEn= 1.80D-02
 Coeff-Com: -0.771D-01 0.165D+00 0.563D-01-0.557D+00 0.207D-01 0.139D+01
 Coeff-En:   0.000D+00 0.000D+00 0.000D+00 0.000D+00 0.000D+00 0.100D+01
 Coeff:     -0.758D-01 0.162D+00 0.553D-01-0.547D+00 0.203D-01 0.138D+01
 Gap=     0.305 Goal=   None    Shift=    0.000
 Gap=     0.305 Goal=   None    Shift=    0.000
 RMSDP=1.06D-04 MaxDP=4.12D-03 DE=-1.42D-03 OVMax= 3.90D-02

 Cycle   7  Pass 1  IDiag  1:
 RMSU=  3.23D-05    CP:  8.95D-01  2.36D+00  1.32D+00  2.23D+00  2.06D+00
                    CP:  2.17D+00
 E= -466.842816606535     Delta-E=       -0.001671536769 Rises=F Damp=F
 DIIS: error= 1.17D-03 at cycle   7 NSaved=   7.
 NSaved= 7 IEnMin= 7 EnMin= -466.842816606535     IErMin= 7 ErrMin= 1.17D-03
 ErrMax= 1.17D-03  0.00D+00 EMaxC= 1.00D-01 BMatC= 2.88D-04 BMatP= 5.44D-04
 IDIUse=3 WtCom= 9.88D-01 WtEn= 1.17D-02
 Coeff-Com: -0.248D-01 0.536D-01 0.430D-01 0.129D-01-0.640D+00-0.685D+00
 Coeff-Com:  0.224D+01
 Coeff-En:   0.000D+00 0.000D+00 0.000D+00 0.000D+00 0.000D+00 0.000D+00
 Coeff-En:   0.100D+01
 Coeff:     -0.245D-01 0.530D-01 0.425D-01 0.128D-01-0.633D+00-0.677D+00
 Coeff:      0.223D+01
 Gap=     0.305 Goal=   None    Shift=    0.000
 Gap=     0.305 Goal=   None    Shift=    0.000
 RMSDP=1.49D-04 MaxDP=7.03D-03 DE=-1.67D-03 OVMax= 5.55D-02

 Cycle   8  Pass 1  IDiag  1:
 RMSU=  5.19D-05    CP:  8.92D-01  2.35D+00  1.36D+00  2.57D+00  2.96D+00
                    CP:  3.00D+00  2.78D+00
 E= -466.844374173150     Delta-E=       -0.001557566615 Rises=F Damp=F
 DIIS: error= 4.38D-04 at cycle   8 NSaved=   8.
 NSaved= 8 IEnMin= 8 EnMin= -466.844374173150     IErMin= 8 ErrMin= 4.38D-04
 ErrMax= 4.38D-04  0.00D+00 EMaxC= 1.00D-01 BMatC= 7.84D-05 BMatP= 2.88D-04
 IDIUse=3 WtCom= 9.96D-01 WtEn= 4.38D-03
 Coeff-Com:  0.271D-01-0.582D-01-0.886D-02 0.284D+00-0.202D+00-0.868D+00
 Coeff-Com:  0.691D+00 0.113D+01
 Coeff-En:   0.000D+00 0.000D+00 0.000D+00 0.000D+00 0.000D+00 0.000D+00
 Coeff-En:   0.000D+00 0.100D+01
 Coeff:      0.270D-01-0.579D-01-0.882D-02 0.283D+00-0.201D+00-0.864D+00
 Coeff:      0.688D+00 0.113D+01
 Gap=     0.307 Goal=   None    Shift=    0.000
 Gap=     0.307 Goal=   None    Shift=    0.000
 RMSDP=7.59D-05 MaxDP=3.73D-03 DE=-1.56D-03 OVMax= 2.81D-02

 Cycle   9  Pass 1  IDiag  1:
 RMSU=  4.66D-05    CP:  8.91D-01  2.35D+00  1.38D+00  2.70D+00  3.00D+00
                    CP:  3.00D+00  3.00D+00  1.84D+00
 E= -466.844699722745     Delta-E=       -0.000325549595 Rises=F Damp=F
 DIIS: error= 1.49D-04 at cycle   9 NSaved=   9.
 NSaved= 9 IEnMin= 9 EnMin= -466.844699722745     IErMin= 9 ErrMin= 1.49D-04
 ErrMax= 1.49D-04  0.00D+00 EMaxC= 1.00D-01 BMatC= 1.49D-05 BMatP= 7.84D-05
 IDIUse=3 WtCom= 9.99D-01 WtEn= 1.49D-03
 Coeff-Com:  0.161D-01-0.347D-01-0.112D-01 0.115D+00 0.348D-01-0.225D+00
 Coeff-Com: -0.123D+00 0.390D+00 0.838D+00
 Coeff-En:   0.000D+00 0.000D+00 0.000D+00 0.000D+00 0.000D+00 0.000D+00
 Coeff-En:   0.000D+00 0.000D+00 0.100D+01
 Coeff:      0.161D-01-0.346D-01-0.112D-01 0.115D+00 0.347D-01-0.225D+00
 Coeff:     -0.123D+00 0.389D+00 0.838D+00
 Gap=     0.307 Goal=   None    Shift=    0.000
 Gap=     0.307 Goal=   None    Shift=    0.000
 RMSDP=2.04D-05 MaxDP=1.02D-03 DE=-3.26D-04 OVMax= 7.44D-03

 Cycle  10  Pass 1  IDiag  1:
 RMSU=  6.45D-06    CP:  8.91D-01  2.35D+00  1.39D+00  2.72D+00  3.00D+00
                    CP:  3.00D+00  3.00D+00  2.06D+00  1.30D+00
 E= -466.844728974109     Delta-E=       -0.000029251364 Rises=F Damp=F
 DIIS: error= 6.89D-05 at cycle  10 NSaved=  10.
 NSaved=10 IEnMin=10 EnMin= -466.844728974109     IErMin=10 ErrMin= 6.89D-05
 ErrMax= 6.89D-05  0.00D+00 EMaxC= 1.00D-01 BMatC= 2.44D-06 BMatP= 1.49D-05
 IDIUse=1 WtCom= 1.00D+00 WtEn= 0.00D+00
 Coeff-Com: -0.157D-02 0.340D-02-0.695D-03-0.320D-01 0.430D-01 0.119D+00
 Coeff-Com: -0.144D+00-0.195D+00 0.155D+00 0.105D+01
 Coeff:     -0.157D-02 0.340D-02-0.695D-03-0.320D-01 0.430D-01 0.119D+00
 Coeff:     -0.144D+00-0.195D+00 0.155D+00 0.105D+01
 Gap=     0.306 Goal=   None    Shift=    0.000
 Gap=     0.306 Goal=   None    Shift=    0.000
 RMSDP=1.04D-05 MaxDP=4.68D-04 DE=-2.93D-05 OVMax= 3.80D-03

 Cycle  11  Pass 1  IDiag  1:
 RMSU=  2.95D-06    CP:  8.90D-01  2.35D+00  1.39D+00  2.73D+00  3.00D+00
                    CP:  3.00D+00  3.00D+00  2.16D+00  1.45D+00  1.56D+00
 E= -466.844733849629     Delta-E=       -0.000004875520 Rises=F Damp=F
 DIIS: error= 2.50D-05 at cycle  11 NSaved=  11.
 NSaved=11 IEnMin=11 EnMin= -466.844733849629     IErMin=11 ErrMin= 2.50D-05
 ErrMax= 2.50D-05  0.00D+00 EMaxC= 1.00D-01 BMatC= 5.65D-07 BMatP= 2.44D-06
 IDIUse=1 WtCom= 1.00D+00 WtEn= 0.00D+00
 Coeff-Com: -0.197D-02 0.425D-02 0.724D-03-0.219D-01 0.116D-01 0.608D-01
 Coeff-Com: -0.349D-01-0.112D+00-0.295D-01 0.422D+00 0.701D+00
 Coeff:     -0.197D-02 0.425D-02 0.724D-03-0.219D-01 0.116D-01 0.608D-01
 Coeff:     -0.349D-01-0.112D+00-0.295D-01 0.422D+00 0.701D+00
 Gap=     0.306 Goal=   None    Shift=    0.000
 Gap=     0.306 Goal=   None    Shift=    0.000
 RMSDP=1.71D-06 MaxDP=9.23D-05 DE=-4.88D-06 OVMax= 5.78D-04

 Cycle  12  Pass 1  IDiag  1:
 RMSU=  9.85D-07    CP:  8.90D-01  2.35D+00  1.39D+00  2.74D+00  3.00D+00
                    CP:  3.00D+00  3.00D+00  2.17D+00  1.47D+00  1.63D+00
                    CP:  1.14D+00
 E= -466.844734209139     Delta-E=       -0.000000359510 Rises=F Damp=F
 DIIS: error= 1.64D-05 at cycle  12 NSaved=  12.
 NSaved=12 IEnMin=12 EnMin= -466.844734209139     IErMin=12 ErrMin= 1.64D-05
 ErrMax= 1.64D-05  0.00D+00 EMaxC= 1.00D-01 BMatC= 9.00D-08 BMatP= 5.65D-07
 IDIUse=1 WtCom= 1.00D+00 WtEn= 0.00D+00
 Coeff-Com:  0.649D-03-0.141D-02-0.122D-03 0.910D-02-0.733D-02-0.302D-01
 Coeff-Com:  0.284D-01 0.491D-01-0.196D-01-0.243D+00-0.287D-01 0.124D+01
 Coeff:      0.649D-03-0.141D-02-0.122D-03 0.910D-02-0.733D-02-0.302D-01
 Coeff:      0.284D-01 0.491D-01-0.196D-01-0.243D+00-0.287D-01 0.124D+01
 Gap=     0.306 Goal=   None    Shift=    0.000
 Gap=     0.306 Goal=   None    Shift=    0.000
 RMSDP=1.03D-06 MaxDP=4.06D-05 DE=-3.60D-07 OVMax= 1.84D-04

 Cycle  13  Pass 1  IDiag  1:
 RMSU=  6.21D-07    CP:  8.90D-01  2.35D+00  1.39D+00  2.74D+00  3.00D+00
                    CP:  3.00D+00  3.00D+00  2.17D+00  1.47D+00  1.62D+00
                    CP:  1.26D+00  1.73D+00
 E= -466.844734351998     Delta-E=       -0.000000142859 Rises=F Damp=F
 DIIS: error= 8.71D-06 at cycle  13 NSaved=  13.
 NSaved=13 IEnMin=13 EnMin= -466.844734351998     IErMin=13 ErrMin= 8.71D-06
 ErrMax= 8.71D-06  0.00D+00 EMaxC= 1.00D-01 BMatC= 2.40D-08 BMatP= 9.00D-08
 IDIUse=1 WtCom= 1.00D+00 WtEn= 0.00D+00
 Coeff-Com: -0.398D-04 0.895D-04 0.840D-04 0.784D-04-0.510D-03-0.530D-03
 Coeff-Com:  0.269D-03 0.437D-02 0.113D-02-0.240D-01-0.112D+00-0.221D+00
 Coeff-Com:  0.135D+01
 Coeff:     -0.398D-04 0.895D-04 0.840D-04 0.784D-04-0.510D-03-0.530D-03
 Coeff:      0.269D-03 0.437D-02 0.113D-02-0.240D-01-0.112D+00-0.221D+00
 Coeff:      0.135D+01
 Gap=     0.306 Goal=   None    Shift=    0.000
 Gap=     0.306 Goal=   None    Shift=    0.000
 RMSDP=5.36D-07 MaxDP=3.04D-05 DE=-1.43D-07 OVMax= 1.32D-04

 Cycle  14  Pass 1  IDiag  1:
 RMSU=  3.32D-07    CP:  8.90D-01  2.35D+00  1.39D+00  2.74D+00  3.00D+00
                    CP:  3.00D+00  3.00D+00  2.17D+00  1.47D+00  1.64D+00
                    CP:  1.31D+00  1.98D+00  1.46D+00
 E= -466.844734404879     Delta-E=       -0.000000052881 Rises=F Damp=F
 DIIS: error= 4.59D-06 at cycle  14 NSaved=  14.
 NSaved=14 IEnMin=14 EnMin= -466.844734404879     IErMin=14 ErrMin= 4.59D-06
 ErrMax= 4.59D-06  0.00D+00 EMaxC= 1.00D-01 BMatC= 6.96D-09 BMatP= 2.40D-08
 IDIUse=1 WtCom= 1.00D+00 WtEn= 0.00D+00
 Coeff-Com: -0.239D-03 0.517D-03 0.117D-03-0.268D-02 0.162D-02 0.837D-02
 Coeff-Com: -0.758D-02-0.127D-01 0.601D-02 0.677D-01-0.862D-02-0.403D+00
 Coeff-Com:  0.998D-01 0.125D+01
 Coeff:     -0.239D-03 0.517D-03 0.117D-03-0.268D-02 0.162D-02 0.837D-02
 Coeff:     -0.758D-02-0.127D-01 0.601D-02 0.677D-01-0.862D-02-0.403D+00
 Coeff:      0.998D-01 0.125D+01
 Gap=     0.306 Goal=   None    Shift=    0.000
 Gap=     0.306 Goal=   None    Shift=    0.000
 RMSDP=3.72D-07 MaxDP=1.73D-05 DE=-5.29D-08 OVMax= 8.79D-05

 Cycle  15  Pass 1  IDiag  1:
 RMSU=  1.34D-07    CP:  8.90D-01  2.35D+00  1.39D+00  2.74D+00  3.00D+00
                    CP:  3.00D+00  3.00D+00  2.17D+00  1.47D+00  1.64D+00
                    CP:  1.31D+00  2.08D+00  1.77D+00  1.78D+00
 E= -466.844734420554     Delta-E=       -0.000000015675 Rises=F Damp=F
 DIIS: error= 1.54D-06 at cycle  15 NSaved=  15.
 NSaved=15 IEnMin=15 EnMin= -466.844734420554     IErMin=15 ErrMin= 1.54D-06
 ErrMax= 1.54D-06  0.00D+00 EMaxC= 1.00D-01 BMatC= 1.04D-09 BMatP= 6.96D-09
 IDIUse=1 WtCom= 1.00D+00 WtEn= 0.00D+00
 Coeff-Com:  0.139D-04-0.307D-04-0.326D-04-0.439D-04 0.299D-03 0.502D-03
 Coeff-Com: -0.123D-02-0.108D-02 0.262D-02 0.127D-01 0.174D-01-0.180D-01
 Coeff-Com: -0.276D+00 0.204D+00 0.106D+01
 Coeff:      0.139D-04-0.307D-04-0.326D-04-0.439D-04 0.299D-03 0.502D-03
 Coeff:     -0.123D-02-0.108D-02 0.262D-02 0.127D-01 0.174D-01-0.180D-01
 Coeff:     -0.276D+00 0.204D+00 0.106D+01
 Gap=     0.306 Goal=   None    Shift=    0.000
 Gap=     0.306 Goal=   None    Shift=    0.000
 RMSDP=1.66D-07 MaxDP=6.88D-06 DE=-1.57D-08 OVMax= 3.56D-05

 Cycle  16  Pass 1  IDiag  1:
 RMSU=  5.69D-08    CP:  8.90D-01  2.35D+00  1.39D+00  2.74D+00  3.00D+00
                    CP:  3.00D+00  3.00D+00  2.17D+00  1.47D+00  1.64D+00
                    CP:  1.31D+00  2.10D+00  1.88D+00  2.09D+00  1.46D+00
 E= -466.844734422270     Delta-E=       -0.000000001716 Rises=F Damp=F
 DIIS: error= 3.15D-07 at cycle  16 NSaved=  16.
 NSaved=16 IEnMin=16 EnMin= -466.844734422270     IErMin=16 ErrMin= 3.15D-07
 ErrMax= 3.15D-07  0.00D+00 EMaxC= 1.00D-01 BMatC= 9.69D-11 BMatP= 1.04D-09
 IDIUse=1 WtCom= 1.00D+00 WtEn= 0.00D+00
 Coeff-Com:  0.855D-05-0.185D-04-0.973D-05 0.980D-04-0.231D-04-0.247D-03
 Coeff-Com:  0.111D-03 0.443D-03 0.284D-04-0.195D-02 0.565D-02 0.286D-01
 Coeff-Com: -0.743D-01-0.649D-01 0.258D+00 0.848D+00
 Coeff:      0.855D-05-0.185D-04-0.973D-05 0.980D-04-0.231D-04-0.247D-03
 Coeff:      0.111D-03 0.443D-03 0.284D-04-0.195D-02 0.565D-02 0.286D-01
 Coeff:     -0.743D-01-0.649D-01 0.258D+00 0.848D+00
 Gap=     0.306 Goal=   None    Shift=    0.000
 Gap=     0.306 Goal=   None    Shift=    0.000
 RMSDP=3.44D-08 MaxDP=1.68D-06 DE=-1.72D-09 OVMax= 5.38D-06

 Cycle  17  Pass 1  IDiag  1:
 RMSU=  1.47D-08    CP:  8.90D-01  2.35D+00  1.39D+00  2.74D+00  3.00D+00
                    CP:  3.00D+00  3.00D+00  2.17D+00  1.47D+00  1.64D+00
                    CP:  1.31D+00  2.10D+00  1.89D+00  2.13D+00  1.57D+00
                    CP:  1.31D+00
 E= -466.844734422337     Delta-E=       -0.000000000067 Rises=F Damp=F
 DIIS: error= 8.07D-08 at cycle  17 NSaved=  17.
 NSaved=17 IEnMin=17 EnMin= -466.844734422337     IErMin=17 ErrMin= 8.07D-08
 ErrMax= 8.07D-08  0.00D+00 EMaxC= 1.00D-01 BMatC= 1.03D-11 BMatP= 9.69D-11
 IDIUse=1 WtCom= 1.00D+00 WtEn= 0.00D+00
 Coeff-Com: -0.526D-06 0.121D-05 0.103D-05 0.677D-05-0.274D-04-0.217D-04
 Coeff-Com:  0.775D-04 0.125D-03-0.297D-03-0.152D-02-0.742D-03 0.624D-02
 Coeff-Com:  0.189D-01-0.337D-01-0.794D-01 0.151D+00 0.939D+00
 Coeff:     -0.526D-06 0.121D-05 0.103D-05 0.677D-05-0.274D-04-0.217D-04
 Coeff:      0.775D-04 0.125D-03-0.297D-03-0.152D-02-0.742D-03 0.624D-02
 Coeff:      0.189D-01-0.337D-01-0.794D-01 0.151D+00 0.939D+00
 Gap=     0.306 Goal=   None    Shift=    0.000
 Gap=     0.306 Goal=   None    Shift=    0.000
 RMSDP=1.13D-08 MaxDP=4.19D-07 DE=-6.73D-11 OVMax= 1.59D-06

 Cycle  18  Pass 1  IDiag  1:
 RMSU=  5.49D-09    CP:  8.90D-01  2.35D+00  1.39D+00  2.74D+00  3.00D+00
                    CP:  3.00D+00  3.00D+00  2.17D+00  1.47D+00  1.64D+00
                    CP:  1.31D+00  2.10D+00  1.90D+00  2.14D+00  1.61D+00
                    CP:  1.41D+00  1.17D+00
 E= -466.844734422346     Delta-E=       -0.000000000009 Rises=F Damp=F
 DIIS: error= 2.63D-08 at cycle  18 NSaved=  18.
 NSaved=18 IEnMin=18 EnMin= -466.844734422346     IErMin=18 ErrMin= 2.63D-08
 ErrMax= 2.63D-08  0.00D+00 EMaxC= 1.00D-01 BMatC= 9.99D-13 BMatP= 1.03D-11
 IDIUse=1 WtCom= 1.00D+00 WtEn= 0.00D+00
 Coeff-Com:  0.945D-06-0.205D-05 0.418D-06 0.918D-05-0.166D-04-0.243D-04
 Coeff-Com:  0.336D-04 0.478D-04-0.397D-04-0.252D-03-0.699D-03-0.122D-02
 Coeff-Com:  0.969D-02 0.747D-03-0.355D-01-0.674D-01 0.127D+00 0.968D+00
 Coeff:      0.945D-06-0.205D-05 0.418D-06 0.918D-05-0.166D-04-0.243D-04
 Coeff:      0.336D-04 0.478D-04-0.397D-04-0.252D-03-0.699D-03-0.122D-02
 Coeff:      0.969D-02 0.747D-03-0.355D-01-0.674D-01 0.127D+00 0.968D+00
 Gap=     0.306 Goal=   None    Shift=    0.000
 Gap=     0.306 Goal=   None    Shift=    0.000
 RMSDP=3.54D-09 MaxDP=1.64D-07 DE=-8.98D-12 OVMax= 4.33D-07

 Error on total polarization charges =  0.01122
 SCF Done:  E(UwB97XD) =  -466.844734422     A.U. after   18 cycles
            NFock= 18  Conv=0.35D-08     -V/T= 2.0056
 <Sx>= 0.0000 <Sy>= 0.0000 <Sz>= 0.0000 <S**2>= 0.0000 S= 0.0000
 <L.S>=  0.00000000000    
 KE= 4.642313160786D+02 PE=-2.440450646360D+03 EE= 8.301273147370D+02
 --------------------------------------------------------------------
 Variational PCM results
 =======================
 <psi(f)|   H    |psi(f)>                     (a.u.) =    -466.852597
 <psi(f)|H+V(f)/2|psi(f)>                     (a.u.) =    -466.854139
 Total free energy in solution:
 - with all non electrostatic terms           (a.u.) =    -466.844734
 --------------------------------------------------------------------
 (Polarized solute)-Solvent               (kcal/mol) =      -0.97
 --------------------------------------------------------------------
 Quantum repulsion energy                 (kcal/mol) =       5.90
 Total non electrostatic                  (kcal/mol) =       5.90
 --------------------------------------------------------------------
 Partition over spheres:
 Sphere  on Atom  Surface  Charge   GEl     GCav    GDR
    1               7.19   0.011   -0.05    0.00    0.00
    2               3.78   0.006   -0.03    0.00    0.00
    3               7.52  -0.010   -0.04    0.00    0.00
    4               3.02  -0.003   -0.01    0.00    0.00
    5               5.31   0.009   -0.07    0.00    0.00
    6               4.73   0.007   -0.04    0.00    0.00
    7               4.63  -0.006   -0.03    0.00    0.00
    8               3.40  -0.004   -0.01    0.00    0.00
    9               3.13   0.002    0.00    0.00    0.00
   10               6.89  -0.007   -0.01    0.00    0.00
   11               2.57  -0.002   -0.01    0.00    0.00
   12               6.78   0.010   -0.06    0.00    0.00
   13               7.52  -0.010   -0.03    0.00    0.00
   14               7.34   0.011   -0.05    0.00    0.00
   15               7.52  -0.010   -0.04    0.00    0.00
   16               3.76   0.001    0.00    0.00    0.00
   17               3.59  -0.003   -0.01    0.00    0.00
   18               6.95  -0.008   -0.03    0.00    0.00
   19               5.10   0.010   -0.07    0.00    0.00
   20               5.13  -0.007   -0.03    0.00    0.00
   21               6.31   0.010   -0.06    0.00    0.00
   22               7.51  -0.010   -0.03    0.00    0.00
   23               3.55   0.002    0.00    0.00    0.00
   24               3.92  -0.003   -0.01    0.00    0.00
   25               6.85  -0.007   -0.01    0.00    0.00
   26               3.27   0.001    0.00    0.00    0.00
   27               6.95  -0.008   -0.03    0.00    0.00
   28               3.49  -0.003   -0.01    0.00    0.00
 Added spheres:    73.46   0.012   -0.21    0.00    0.00
 --------------------------------------------------------------------
 After PCM corrections, the energy is  -466.844734422     a.u.
 --------------------------------------------------------------------
 Annihilation of the first spin contaminant:
 S**2 before annihilation     0.0000,   after    -0.0000
 Leave Link  502 at Tue Aug  4 04:04:21 2020, MaxMem=  6442450944 cpu:            8073.6 elap:             339.4
 (Enter /scratch/scicomp/CentOS/7.3.1611/Haswell/software/Gaussian/g16/l601.exe)
 Copying SCF densities to generalized density rwf, IOpCl= 1 IROHF=0.

 **********************************************************************

            Population analysis using the SCF Density.

 **********************************************************************

 Alpha  occ. eigenvalues --  -10.28379 -10.28379 -10.28084 -10.28083 -10.28075
 Alpha  occ. eigenvalues --  -10.28075 -10.28011 -10.28010 -10.27798 -10.27798
 Alpha  occ. eigenvalues --  -10.27308 -10.27307  -0.94145  -0.93412  -0.84269
 Alpha  occ. eigenvalues --   -0.84111  -0.83606  -0.83557  -0.71425  -0.71028
 Alpha  occ. eigenvalues --   -0.67957  -0.67789  -0.59676  -0.59537  -0.57313
 Alpha  occ. eigenvalues --   -0.56470  -0.53595  -0.52714  -0.50847  -0.50835
 Alpha  occ. eigenvalues --   -0.49742  -0.49177  -0.47326  -0.46751  -0.45273
 Alpha  occ. eigenvalues --   -0.44884  -0.41234  -0.40864  -0.39675  -0.39149
 Alpha  occ. eigenvalues --   -0.39082  -0.38760  -0.29761  -0.27189
 Alpha virt. eigenvalues --    0.03438   0.05475   0.11395   0.13120   0.14389
 Alpha virt. eigenvalues --    0.15522   0.15526   0.16418   0.16559   0.16920
 Alpha virt. eigenvalues --    0.17525   0.17669   0.18165   0.19193   0.20926
 Alpha virt. eigenvalues --    0.22175   0.22341   0.23687   0.24274   0.24599
 Alpha virt. eigenvalues --    0.25489   0.26247   0.26565   0.27393   0.28582
 Alpha virt. eigenvalues --    0.29099   0.29690   0.29972   0.30925   0.31187
 Alpha virt. eigenvalues --    0.31910   0.32373   0.32885   0.33279   0.34306
 Alpha virt. eigenvalues --    0.34497   0.35008   0.36429   0.36639   0.37893
 Alpha virt. eigenvalues --    0.38696   0.39571   0.41139   0.41921   0.42369
 Alpha virt. eigenvalues --    0.42430   0.44442   0.44789   0.45842   0.46490
 Alpha virt. eigenvalues --    0.47207   0.47689   0.48604   0.48646   0.49220
 Alpha virt. eigenvalues --    0.49504   0.49652   0.49738   0.50392   0.50824
 Alpha virt. eigenvalues --    0.51245   0.51293   0.52628   0.52828   0.53415
 Alpha virt. eigenvalues --    0.53943   0.54898   0.54946   0.55818   0.55949
 Alpha virt. eigenvalues --    0.57647   0.58162   0.58237   0.59635   0.60771
 Alpha virt. eigenvalues --    0.60964   0.61339   0.62408   0.63613   0.65447
 Alpha virt. eigenvalues --    0.66300   0.67236   0.68457   0.68670   0.68959
 Alpha virt. eigenvalues --    0.69704   0.72831   0.73527   0.74363   0.75265
 Alpha virt. eigenvalues --    0.78193   0.78539   0.78850   0.80328   0.80625
 Alpha virt. eigenvalues --    0.81937   0.82911   0.83817   0.87222   0.87896
 Alpha virt. eigenvalues --    0.90168   0.90438   0.90777   0.92351   0.93370
 Alpha virt. eigenvalues --    0.94612   0.95786   0.96914   0.98629   0.99189
 Alpha virt. eigenvalues --    1.01284   1.03912   1.05082   1.05405   1.05444
 Alpha virt. eigenvalues --    1.06997   1.07939   1.08262   1.09890   1.11451
 Alpha virt. eigenvalues --    1.13002   1.13784   1.14349   1.15243   1.16254
 Alpha virt. eigenvalues --    1.16821   1.17579   1.18403   1.19193   1.20266
 Alpha virt. eigenvalues --    1.20663   1.21400   1.23960   1.25017   1.25261
 Alpha virt. eigenvalues --    1.25981   1.26609   1.28024   1.28732   1.29024
 Alpha virt. eigenvalues --    1.29752   1.31701   1.31776   1.32748   1.32838
 Alpha virt. eigenvalues --    1.34382   1.35068   1.37364   1.37800   1.37906
 Alpha virt. eigenvalues --    1.38787   1.39232   1.41111   1.41308   1.42306
 Alpha virt. eigenvalues --    1.43164   1.43549   1.43620   1.44200   1.45100
 Alpha virt. eigenvalues --    1.45934   1.46252   1.47447   1.48369   1.49324
 Alpha virt. eigenvalues --    1.49482   1.51276   1.52936   1.54358   1.56300
 Alpha virt. eigenvalues --    1.58158   1.58358   1.59220   1.60512   1.61626
 Alpha virt. eigenvalues --    1.62476   1.63788   1.63895   1.66195   1.67382
 Alpha virt. eigenvalues --    1.68466   1.70898   1.74208   1.74615   1.78693
 Alpha virt. eigenvalues --    1.80034   1.80951   1.81815   1.83552   1.85485
 Alpha virt. eigenvalues --    1.87235   1.87728   1.90615   1.91503   1.92641
 Alpha virt. eigenvalues --    1.93090   1.97645   1.98099   2.00293   2.00737
 Alpha virt. eigenvalues --    2.03041   2.03675   2.08639   2.09190   2.09641
 Alpha virt. eigenvalues --    2.11573   2.12282   2.12766   2.14983   2.15691
 Alpha virt. eigenvalues --    2.17753   2.20552   2.20854   2.21432   2.22969
 Alpha virt. eigenvalues --    2.23702   2.25041   2.25512   2.27669   2.28338
 Alpha virt. eigenvalues --    2.33328   2.36106   2.38068   2.39854   2.42015
 Alpha virt. eigenvalues --    2.43903   2.45379   2.45530   2.49298   2.49680
 Alpha virt. eigenvalues --    2.50451   2.50728   2.53041   2.55421   2.55479
 Alpha virt. eigenvalues --    2.57021   2.57788   2.59293   2.61855   2.62427
 Alpha virt. eigenvalues --    2.62780   2.64829   2.65359   2.65612   2.66171
 Alpha virt. eigenvalues --    2.66821   2.67754   2.71256   2.72497   2.73020
 Alpha virt. eigenvalues --    2.73165   2.74429   2.75181   2.75992   2.77052
 Alpha virt. eigenvalues --    2.77907   2.78926   2.80340   2.80806   2.81411
 Alpha virt. eigenvalues --    2.81884   2.83069   2.83251   2.84453   2.85649
 Alpha virt. eigenvalues --    2.86293   2.87361   2.87511   2.87963   2.90243
 Alpha virt. eigenvalues --    2.91486   2.92094   2.92753   2.93338   2.94784
 Alpha virt. eigenvalues --    2.95957   2.96018   2.96541   2.97615   3.01301
 Alpha virt. eigenvalues --    3.01332   3.02578   3.03597   3.05306   3.05946
 Alpha virt. eigenvalues --    3.07542   3.09297   3.09912   3.10835   3.11010
 Alpha virt. eigenvalues --    3.11857   3.13276   3.13788   3.14825   3.15672
 Alpha virt. eigenvalues --    3.15793   3.16843   3.17228   3.18867   3.19234
 Alpha virt. eigenvalues --    3.20178   3.20824   3.20854   3.21259   3.21629
 Alpha virt. eigenvalues --    3.22261   3.23074   3.23372   3.24114   3.24929
 Alpha virt. eigenvalues --    3.25863   3.26421   3.27148   3.27255   3.27971
 Alpha virt. eigenvalues --    3.28533   3.30512   3.31103   3.31988   3.32172
 Alpha virt. eigenvalues --    3.32358   3.33156   3.33847   3.35112   3.35770
 Alpha virt. eigenvalues --    3.36226   3.36836   3.37494   3.38271   3.39133
 Alpha virt. eigenvalues --    3.41812   3.42624   3.43269   3.43978   3.44568
 Alpha virt. eigenvalues --    3.45733   3.45881   3.46888   3.47485   3.47520
 Alpha virt. eigenvalues --    3.48369   3.49614   3.49968   3.51243   3.52591
 Alpha virt. eigenvalues --    3.53256   3.53618   3.54776   3.55067   3.55466
 Alpha virt. eigenvalues --    3.57667   3.58801   3.58952   3.61347   3.65719
 Alpha virt. eigenvalues --    3.65794   3.66570   3.67038   3.68437   3.69412
 Alpha virt. eigenvalues --    3.70618   3.70650   3.72320   3.72843   3.74155
 Alpha virt. eigenvalues --    3.78004   3.78091   3.79509   3.81529   3.83792
 Alpha virt. eigenvalues --    3.85413   3.85546   3.85797   3.87037   3.88116
 Alpha virt. eigenvalues --    3.89903   3.91606   3.93178   3.94420   3.96002
 Alpha virt. eigenvalues --    3.98552   4.00470   4.01661   4.02634   4.05112
 Alpha virt. eigenvalues --    4.06807   4.08473   4.09300   4.09409   4.11044
 Alpha virt. eigenvalues --    4.12462   4.13146   4.15072   4.15422   4.18689
 Alpha virt. eigenvalues --    4.18998   4.21407   4.21739   4.23076   4.25425
 Alpha virt. eigenvalues --    4.26683   4.26749   4.31341   4.31353   4.35676
 Alpha virt. eigenvalues --    4.35744   4.38256   4.39114   4.40593   4.42239
 Alpha virt. eigenvalues --    4.44979   4.46090   4.48578   4.49664   4.52831
 Alpha virt. eigenvalues --    4.54656   4.59547   4.61633   4.65218   4.67807
 Alpha virt. eigenvalues --    4.68617   4.69440   4.73325   4.74302   4.76330
 Alpha virt. eigenvalues --    4.77903   4.80341   4.81778   4.84792   4.84851
 Alpha virt. eigenvalues --    4.85626   4.87441   4.92678   4.94899   4.95505
 Alpha virt. eigenvalues --    4.98178   5.00484   5.00986   5.07183   5.07984
 Alpha virt. eigenvalues --    5.14253   5.16018   5.19321   5.21931   5.22838
 Alpha virt. eigenvalues --    5.23689   5.33520   5.33828   5.41550   5.42736
 Alpha virt. eigenvalues --    5.44836   5.44941   5.50693   5.52884   5.70479
 Alpha virt. eigenvalues --    5.71480   5.77112   5.79403   5.95867   6.02674
 Alpha virt. eigenvalues --    7.94458   7.95508   8.01086   8.04584   8.05319
 Alpha virt. eigenvalues --    8.09386   8.09664   8.12973   8.17266   8.19317
 Alpha virt. eigenvalues --    8.35745   8.36155  34.76466  34.77860  34.81338
 Alpha virt. eigenvalues --   34.81843  34.85091  34.89982  34.96192  34.99708
 Alpha virt. eigenvalues --   35.01741  35.01874  35.17203  35.18425
  Beta  occ. eigenvalues --  -10.28379 -10.28379 -10.28084 -10.28083 -10.28075
  Beta  occ. eigenvalues --  -10.28075 -10.28011 -10.28010 -10.27798 -10.27798
  Beta  occ. eigenvalues --  -10.27308 -10.27307  -0.94145  -0.93412  -0.84269
  Beta  occ. eigenvalues --   -0.84111  -0.83606  -0.83557  -0.71425  -0.71028
  Beta  occ. eigenvalues --   -0.67957  -0.67789  -0.59676  -0.59537  -0.57313
  Beta  occ. eigenvalues --   -0.56470  -0.53595  -0.52714  -0.50847  -0.50835
  Beta  occ. eigenvalues --   -0.49742  -0.49177  -0.47326  -0.46751  -0.45273
  Beta  occ. eigenvalues --   -0.44884  -0.41234  -0.40864  -0.39675  -0.39149
  Beta  occ. eigenvalues --   -0.39082  -0.38760  -0.29761  -0.27189
  Beta virt. eigenvalues --    0.03438   0.05475   0.11395   0.13120   0.14389
  Beta virt. eigenvalues --    0.15522   0.15526   0.16418   0.16559   0.16920
  Beta virt. eigenvalues --    0.17525   0.17669   0.18165   0.19193   0.20926
  Beta virt. eigenvalues --    0.22175   0.22341   0.23687   0.24274   0.24599
  Beta virt. eigenvalues --    0.25489   0.26247   0.26565   0.27393   0.28582
  Beta virt. eigenvalues --    0.29099   0.29690   0.29972   0.30925   0.31187
  Beta virt. eigenvalues --    0.31910   0.32373   0.32885   0.33279   0.34306
  Beta virt. eigenvalues --    0.34497   0.35008   0.36429   0.36639   0.37893
  Beta virt. eigenvalues --    0.38696   0.39571   0.41139   0.41921   0.42369
  Beta virt. eigenvalues --    0.42430   0.44442   0.44789   0.45842   0.46490
  Beta virt. eigenvalues --    0.47207   0.47689   0.48604   0.48646   0.49220
  Beta virt. eigenvalues --    0.49504   0.49652   0.49738   0.50392   0.50824
  Beta virt. eigenvalues --    0.51245   0.51293   0.52628   0.52828   0.53415
  Beta virt. eigenvalues --    0.53943   0.54898   0.54946   0.55818   0.55949
  Beta virt. eigenvalues --    0.57647   0.58162   0.58237   0.59635   0.60771
  Beta virt. eigenvalues --    0.60964   0.61339   0.62408   0.63613   0.65447
  Beta virt. eigenvalues --    0.66300   0.67236   0.68457   0.68670   0.68959
  Beta virt. eigenvalues --    0.69704   0.72831   0.73527   0.74363   0.75265
  Beta virt. eigenvalues --    0.78193   0.78539   0.78850   0.80328   0.80625
  Beta virt. eigenvalues --    0.81937   0.82911   0.83817   0.87222   0.87896
  Beta virt. eigenvalues --    0.90168   0.90438   0.90777   0.92351   0.93370
  Beta virt. eigenvalues --    0.94612   0.95786   0.96914   0.98629   0.99189
  Beta virt. eigenvalues --    1.01284   1.03912   1.05082   1.05405   1.05444
  Beta virt. eigenvalues --    1.06997   1.07939   1.08262   1.09890   1.11451
  Beta virt. eigenvalues --    1.13002   1.13784   1.14349   1.15243   1.16254
  Beta virt. eigenvalues --    1.16821   1.17579   1.18403   1.19193   1.20266
  Beta virt. eigenvalues --    1.20663   1.21400   1.23960   1.25017   1.25261
  Beta virt. eigenvalues --    1.25981   1.26609   1.28024   1.28732   1.29024
  Beta virt. eigenvalues --    1.29752   1.31701   1.31776   1.32748   1.32838
  Beta virt. eigenvalues --    1.34382   1.35068   1.37364   1.37800   1.37906
  Beta virt. eigenvalues --    1.38787   1.39232   1.41111   1.41308   1.42306
  Beta virt. eigenvalues --    1.43164   1.43549   1.43620   1.44200   1.45100
  Beta virt. eigenvalues --    1.45934   1.46252   1.47447   1.48369   1.49324
  Beta virt. eigenvalues --    1.49482   1.51276   1.52936   1.54358   1.56300
  Beta virt. eigenvalues --    1.58158   1.58358   1.59220   1.60512   1.61626
  Beta virt. eigenvalues --    1.62476   1.63788   1.63895   1.66195   1.67382
  Beta virt. eigenvalues --    1.68466   1.70898   1.74208   1.74615   1.78693
  Beta virt. eigenvalues --    1.80034   1.80951   1.81815   1.83552   1.85485
  Beta virt. eigenvalues --    1.87235   1.87728   1.90615   1.91503   1.92641
  Beta virt. eigenvalues --    1.93090   1.97645   1.98099   2.00293   2.00737
  Beta virt. eigenvalues --    2.03041   2.03675   2.08639   2.09190   2.09641
  Beta virt. eigenvalues --    2.11573   2.12282   2.12766   2.14983   2.15691
  Beta virt. eigenvalues --    2.17753   2.20552   2.20854   2.21432   2.22969
  Beta virt. eigenvalues --    2.23702   2.25041   2.25512   2.27669   2.28338
  Beta virt. eigenvalues --    2.33328   2.36106   2.38068   2.39854   2.42015
  Beta virt. eigenvalues --    2.43903   2.45379   2.45530   2.49298   2.49680
  Beta virt. eigenvalues --    2.50451   2.50728   2.53041   2.55421   2.55479
  Beta virt. eigenvalues --    2.57021   2.57788   2.59293   2.61855   2.62427
  Beta virt. eigenvalues --    2.62780   2.64829   2.65359   2.65612   2.66171
  Beta virt. eigenvalues --    2.66821   2.67754   2.71256   2.72497   2.73020
  Beta virt. eigenvalues --    2.73165   2.74429   2.75181   2.75992   2.77052
  Beta virt. eigenvalues --    2.77907   2.78926   2.80340   2.80806   2.81411
  Beta virt. eigenvalues --    2.81884   2.83069   2.83251   2.84453   2.85649
  Beta virt. eigenvalues --    2.86293   2.87361   2.87511   2.87963   2.90243
  Beta virt. eigenvalues --    2.91486   2.92094   2.92753   2.93338   2.94784
  Beta virt. eigenvalues --    2.95957   2.96018   2.96541   2.97615   3.01301
  Beta virt. eigenvalues --    3.01332   3.02578   3.03597   3.05306   3.05946
  Beta virt. eigenvalues --    3.07542   3.09297   3.09912   3.10835   3.11010
  Beta virt. eigenvalues --    3.11857   3.13276   3.13788   3.14825   3.15672
  Beta virt. eigenvalues --    3.15793   3.16843   3.17228   3.18867   3.19234
  Beta virt. eigenvalues --    3.20178   3.20824   3.20854   3.21259   3.21629
  Beta virt. eigenvalues --    3.22261   3.23074   3.23372   3.24114   3.24929
  Beta virt. eigenvalues --    3.25863   3.26421   3.27148   3.27255   3.27971
  Beta virt. eigenvalues --    3.28533   3.30512   3.31103   3.31988   3.32172
  Beta virt. eigenvalues --    3.32358   3.33156   3.33847   3.35112   3.35770
  Beta virt. eigenvalues --    3.36226   3.36836   3.37494   3.38271   3.39133
  Beta virt. eigenvalues --    3.41812   3.42624   3.43269   3.43978   3.44568
  Beta virt. eigenvalues --    3.45733   3.45881   3.46888   3.47485   3.47520
  Beta virt. eigenvalues --    3.48369   3.49614   3.49968   3.51243   3.52591
  Beta virt. eigenvalues --    3.53256   3.53618   3.54776   3.55067   3.55466
  Beta virt. eigenvalues --    3.57667   3.58801   3.58952   3.61347   3.65719
  Beta virt. eigenvalues --    3.65794   3.66570   3.67038   3.68437   3.69412
  Beta virt. eigenvalues --    3.70618   3.70650   3.72320   3.72843   3.74155
  Beta virt. eigenvalues --    3.78004   3.78091   3.79509   3.81529   3.83792
  Beta virt. eigenvalues --    3.85413   3.85546   3.85797   3.87037   3.88116
  Beta virt. eigenvalues --    3.89903   3.91606   3.93178   3.94420   3.96002
  Beta virt. eigenvalues --    3.98552   4.00470   4.01661   4.02634   4.05112
  Beta virt. eigenvalues --    4.06807   4.08473   4.09300   4.09409   4.11044
  Beta virt. eigenvalues --    4.12462   4.13146   4.15072   4.15422   4.18689
  Beta virt. eigenvalues --    4.18998   4.21407   4.21739   4.23076   4.25425
  Beta virt. eigenvalues --    4.26683   4.26749   4.31341   4.31353   4.35676
  Beta virt. eigenvalues --    4.35744   4.38256   4.39114   4.40593   4.42239
  Beta virt. eigenvalues --    4.44979   4.46090   4.48578   4.49664   4.52831
  Beta virt. eigenvalues --    4.54656   4.59547   4.61633   4.65218   4.67807
  Beta virt. eigenvalues --    4.68617   4.69440   4.73325   4.74302   4.76330
  Beta virt. eigenvalues --    4.77903   4.80341   4.81778   4.84792   4.84851
  Beta virt. eigenvalues --    4.85626   4.87441   4.92678   4.94899   4.95505
  Beta virt. eigenvalues --    4.98178   5.00484   5.00986   5.07183   5.07984
  Beta virt. eigenvalues --    5.14253   5.16018   5.19321   5.21931   5.22838
  Beta virt. eigenvalues --    5.23689   5.33520   5.33828   5.41550   5.42736
  Beta virt. eigenvalues --    5.44836   5.44941   5.50693   5.52884   5.70479
  Beta virt. eigenvalues --    5.71480   5.77112   5.79403   5.95867   6.02674
  Beta virt. eigenvalues --    7.94458   7.95508   8.01086   8.04584   8.05319
  Beta virt. eigenvalues --    8.09386   8.09664   8.12973   8.17266   8.19317
  Beta virt. eigenvalues --    8.35745   8.36155  34.76466  34.77860  34.81338
  Beta virt. eigenvalues --   34.81843  34.85091  34.89982  34.96192  34.99708
  Beta virt. eigenvalues --   35.01741  35.01874  35.17203  35.18425
          Condensed to atoms (all electrons):
               1          2          3          4          5          6
     1  C    5.143231  -0.000606   0.423826  -0.001778   0.001401  -0.006278
     2  C   -0.000606   5.372165  -0.002218   0.426267  -0.039126  -0.030549
     3  H    0.423826  -0.002218   0.491570   0.000026  -0.000043   0.000007
     4  H   -0.001778   0.426267   0.000026   0.462997  -0.005386   0.003265
     5  C    0.001401  -0.039126  -0.000043  -0.005386   5.191789   0.489079
     6  C   -0.006278  -0.030549   0.000007   0.003265   0.489079   5.371305
     7  H    0.000304  -0.002224   0.000001  -0.000069   0.425154  -0.026495
     8  H   -0.001972   0.003217  -0.000034   0.000017  -0.039213   0.426145
     9  C    0.002116  -0.008947  -0.000006  -0.001801  -0.056755   0.205424
    10  H   -0.000043   0.000699  -0.000001  -0.000150  -0.005081  -0.036104
    11  H    0.000068  -0.006167   0.000001   0.000278   0.009493  -0.061062
    12  C   -0.000170   0.011559   0.000002   0.002037   0.287082  -0.067824
    13  H   -0.000001   0.000045   0.000000   0.000021  -0.036265   0.004860
    14  C    0.000164  -0.006200  -0.000000  -0.002026  -0.049082  -0.000575
    15  H   -0.000000   0.000007  -0.000000  -0.000034   0.007083  -0.002208
    16  C   -0.000633   0.013634   0.000000   0.000690  -0.002090  -0.057994
    17  H   -0.000034  -0.000275  -0.000001  -0.001627   0.009144  -0.001650
    18  H    0.000003   0.000450   0.000000   0.000254  -0.003210   0.011639
    19  C   -0.048963   0.488634   0.007092  -0.039413  -0.016203  -0.039273
    20  H    0.003656  -0.025835  -0.000079  -0.004079   0.000333  -0.002255
    21  C    0.578930  -0.067647  -0.031486   0.004742   0.001831   0.011641
    22  H   -0.025128   0.004937  -0.005641  -0.000048   0.000025   0.000045
    23  C   -0.081587   0.205861   0.005172  -0.012577   0.010710  -0.009059
    24  H    0.013585  -0.061163  -0.000079  -0.003917   0.000881  -0.006174
    25  H    0.003701  -0.035910  -0.000052  -0.000630   0.000641   0.000699
    26  C    0.275587  -0.058026  -0.029046   0.003574  -0.007282   0.013653
    27  H   -0.039061   0.011649  -0.004389  -0.000081   0.000270   0.000448
    28  H   -0.035197  -0.001634   0.000984  -0.000132  -0.003390  -0.000324
               7          8          9         10         11         12
     1  C    0.000304  -0.001972   0.002116  -0.000043   0.000068  -0.000170
     2  C   -0.002224   0.003217  -0.008947   0.000699  -0.006167   0.011559
     3  H    0.000001  -0.000034  -0.000006  -0.000001   0.000001   0.000002
     4  H   -0.000069   0.000017  -0.001801  -0.000150   0.000278   0.002037
     5  C    0.425154  -0.039213  -0.056755  -0.005081   0.009493   0.287082
     6  C   -0.026495   0.426145   0.205424  -0.036104  -0.061062  -0.067824
     7  H    0.474298  -0.004097   0.002803  -0.000255  -0.000013  -0.029262
     8  H   -0.004097   0.463495  -0.012684  -0.000632  -0.003912   0.004729
     9  C    0.002803  -0.012684   4.998768   0.386341   0.465423   0.036818
    10  H   -0.000255  -0.000632   0.386341   0.569067  -0.020721   0.001448
    11  H   -0.000013  -0.003912   0.465423  -0.020721   0.531774  -0.004750
    12  C   -0.029262   0.004729   0.036818   0.001448  -0.004750   5.010136
    13  H   -0.003182  -0.000049  -0.000277  -0.000052   0.000025   0.425230
    14  C    0.003634  -0.001766  -0.081653   0.003749   0.013573   0.578966
    15  H   -0.000079   0.000026   0.005170  -0.000051  -0.000080  -0.031525
    16  C   -0.000865   0.003566   0.341454  -0.021202  -0.057626  -0.056070
    17  H    0.000015  -0.000130  -0.032092   0.006504  -0.008175  -0.014193
    18  H    0.000027  -0.000081  -0.044555  -0.008936  -0.000637   0.006300
    19  C    0.000335  -0.005462   0.010776   0.000637   0.000875   0.001843
    20  H    0.000008  -0.000070   0.002787   0.000238  -0.001650  -0.000148
    21  C   -0.000150   0.002117  -0.002402  -0.000041  -0.000005  -0.000324
    22  H   -0.000001   0.000022  -0.000059  -0.000001   0.000005  -0.000000
    23  C    0.002742  -0.001796   0.001597  -0.000037   0.000304  -0.002381
    24  H   -0.001624   0.000279   0.000308  -0.000011  -0.000022  -0.000014
    25  H    0.000239  -0.000151  -0.000038   0.000004  -0.000011  -0.000040
    26  C   -0.001814   0.000693  -0.000967   0.000070  -0.000109   0.001001
    27  H   -0.000024   0.000256  -0.000021   0.000000  -0.000001  -0.000043
    28  H    0.001567  -0.001682   0.000489  -0.000001   0.000008   0.000470
              13         14         15         16         17         18
     1  C   -0.000001   0.000164  -0.000000  -0.000633  -0.000034   0.000003
     2  C    0.000045  -0.006200   0.000007   0.013634  -0.000275   0.000450
     3  H    0.000000  -0.000000  -0.000000   0.000000  -0.000001   0.000000
     4  H    0.000021  -0.002026  -0.000034   0.000690  -0.001627   0.000254
     5  C   -0.036265  -0.049082   0.007083  -0.002090   0.009144  -0.003210
     6  C    0.004860  -0.000575  -0.002208  -0.057994  -0.001650   0.011639
     7  H   -0.003182   0.003634  -0.000079  -0.000865   0.000015   0.000027
     8  H   -0.000049  -0.001766   0.000026   0.003566  -0.000130  -0.000081
     9  C   -0.000277  -0.081653   0.005170   0.341454  -0.032092  -0.044555
    10  H   -0.000052   0.003749  -0.000051  -0.021202   0.006504  -0.008936
    11  H    0.000025   0.013573  -0.000080  -0.057626  -0.008175  -0.000637
    12  C    0.425230   0.578966  -0.031525  -0.056070  -0.014193   0.006300
    13  H    0.488668  -0.025345  -0.005641   0.004233  -0.000374  -0.000089
    14  C   -0.025345   5.143564   0.423837   0.275489  -0.035272  -0.039071
    15  H   -0.005641   0.423837   0.491583  -0.029025   0.000989  -0.004392
    16  C    0.004233   0.275489  -0.029025   4.944129   0.401212   0.437281
    17  H   -0.000374  -0.035272   0.000989   0.401212   0.583166  -0.022136
    18  H   -0.000089  -0.039071  -0.004392   0.437281  -0.022136   0.537227
    19  C    0.000025   0.001386  -0.000043  -0.007294  -0.003430   0.000269
    20  H   -0.000001   0.000306   0.000001  -0.001843   0.001552  -0.000023
    21  C   -0.000000  -0.000170   0.000002   0.000998   0.000470  -0.000043
    22  H    0.000000  -0.000001   0.000000   0.000016  -0.000001  -0.000001
    23  C   -0.000061   0.002120  -0.000006  -0.000961   0.000491  -0.000021
    24  H    0.000006   0.000071   0.000001  -0.000109   0.000008  -0.000001
    25  H   -0.000001  -0.000043  -0.000001   0.000070  -0.000002   0.000000
    26  C    0.000016  -0.000633   0.000000   0.000892   0.000052  -0.000004
    27  H   -0.000001   0.000003   0.000000  -0.000004   0.000002  -0.000000
    28  H   -0.000001  -0.000034  -0.000001   0.000052  -0.000017   0.000002
              19         20         21         22         23         24
     1  C   -0.048963   0.003656   0.578930  -0.025128  -0.081587   0.013585
     2  C    0.488634  -0.025835  -0.067647   0.004937   0.205861  -0.061163
     3  H    0.007092  -0.000079  -0.031486  -0.005641   0.005172  -0.000079
     4  H   -0.039413  -0.004079   0.004742  -0.000048  -0.012577  -0.003917
     5  C   -0.016203   0.000333   0.001831   0.000025   0.010710   0.000881
     6  C   -0.039273  -0.002255   0.011641   0.000045  -0.009059  -0.006174
     7  H    0.000335   0.000008  -0.000150  -0.000001   0.002742  -0.001624
     8  H   -0.005462  -0.000070   0.002117   0.000022  -0.001796   0.000279
     9  C    0.010776   0.002787  -0.002402  -0.000059   0.001597   0.000308
    10  H    0.000637   0.000238  -0.000041  -0.000001  -0.000037  -0.000011
    11  H    0.000875  -0.001650  -0.000005   0.000005   0.000304  -0.000022
    12  C    0.001843  -0.000148  -0.000324  -0.000000  -0.002381  -0.000014
    13  H    0.000025  -0.000001  -0.000000   0.000000  -0.000061   0.000006
    14  C    0.001386   0.000306  -0.000170  -0.000001   0.002120   0.000071
    15  H   -0.000043   0.000001   0.000002   0.000000  -0.000006   0.000001
    16  C   -0.007294  -0.001843   0.000998   0.000016  -0.000961  -0.000109
    17  H   -0.003430   0.001552   0.000470  -0.000001   0.000491   0.000008
    18  H    0.000269  -0.000023  -0.000043  -0.000001  -0.000021  -0.000001
    19  C    5.192722   0.424722   0.286373  -0.036425  -0.056988   0.009548
    20  H    0.424722   0.474007  -0.029469  -0.003176   0.002790  -0.000013
    21  C    0.286373  -0.029469   5.010860   0.425097   0.036790  -0.004761
    22  H   -0.036425  -0.003176   0.425097   0.488642  -0.000281   0.000025
    23  C   -0.056988   0.002790   0.036790  -0.000281   4.998664   0.465550
    24  H    0.009548  -0.000013  -0.004761   0.000025   0.465550   0.531454
    25  H   -0.005144  -0.000257   0.001496  -0.000052   0.386043  -0.020664
    26  C   -0.002208  -0.000870  -0.056115   0.004245   0.341461  -0.057654
    27  H   -0.003213   0.000027   0.006314  -0.000089  -0.044571  -0.000642
    28  H    0.009154   0.000015  -0.014181  -0.000374  -0.032291  -0.008160
              25         26         27         28
     1  C    0.003701   0.275587  -0.039061  -0.035197
     2  C   -0.035910  -0.058026   0.011649  -0.001634
     3  H   -0.000052  -0.029046  -0.004389   0.000984
     4  H   -0.000630   0.003574  -0.000081  -0.000132
     5  C    0.000641  -0.007282   0.000270  -0.003390
     6  C    0.000699   0.013653   0.000448  -0.000324
     7  H    0.000239  -0.001814  -0.000024   0.001567
     8  H   -0.000151   0.000693   0.000256  -0.001682
     9  C   -0.000038  -0.000967  -0.000021   0.000489
    10  H    0.000004   0.000070   0.000000  -0.000001
    11  H   -0.000011  -0.000109  -0.000001   0.000008
    12  C   -0.000040   0.001001  -0.000043   0.000470
    13  H   -0.000001   0.000016  -0.000001  -0.000001
    14  C   -0.000043  -0.000633   0.000003  -0.000034
    15  H   -0.000001   0.000000   0.000000  -0.000001
    16  C    0.000070   0.000892  -0.000004   0.000052
    17  H   -0.000002   0.000052   0.000002  -0.000017
    18  H    0.000000  -0.000004  -0.000000   0.000002
    19  C   -0.005144  -0.002208  -0.003213   0.009154
    20  H   -0.000257  -0.000870   0.000027   0.000015
    21  C    0.001496  -0.056115   0.006314  -0.014181
    22  H   -0.000052   0.004245  -0.000089  -0.000374
    23  C    0.386043   0.341461  -0.044571  -0.032291
    24  H   -0.020664  -0.057654  -0.000642  -0.008160
    25  H    0.569120  -0.021102  -0.008933   0.006506
    26  C   -0.021102   4.944447   0.437252   0.401334
    27  H   -0.008933   0.437252   0.537215  -0.022145
    28  H    0.006506   0.401334  -0.022145   0.583005
          Atomic-Atomic Spin Densities.
               1          2          3          4          5          6
     1  C    0.000000   0.000000  -0.000000  -0.000000  -0.000000  -0.000000
     2  C    0.000000  -0.000000  -0.000000  -0.000000   0.000000   0.000000
     3  H   -0.000000  -0.000000  -0.000000  -0.000000   0.000000  -0.000000
     4  H   -0.000000  -0.000000  -0.000000   0.000000   0.000000  -0.000000
     5  C   -0.000000   0.000000   0.000000   0.000000  -0.000000   0.000000
     6  C   -0.000000   0.000000  -0.000000  -0.000000   0.000000   0.000000
     7  H    0.000000  -0.000000  -0.000000   0.000000   0.000000  -0.000000
     8  H   -0.000000   0.000000   0.000000   0.000000  -0.000000   0.000000
     9  C    0.000000  -0.000000   0.000000   0.000000  -0.000000  -0.000000
    10  H   -0.000000   0.000000   0.000000  -0.000000   0.000000   0.000000
    11  H   -0.000000   0.000000  -0.000000  -0.000000  -0.000000   0.000000
    12  C    0.000000  -0.000000  -0.000000  -0.000000   0.000000  -0.000000
    13  H    0.000000  -0.000000  -0.000000  -0.000000  -0.000000   0.000000
    14  C    0.000000   0.000000   0.000000   0.000000   0.000000  -0.000000
    15  H   -0.000000   0.000000   0.000000  -0.000000   0.000000   0.000000
    16  C    0.000000  -0.000000  -0.000000  -0.000000   0.000000   0.000000
    17  H   -0.000000   0.000000   0.000000  -0.000000  -0.000000   0.000000
    18  H    0.000000  -0.000000   0.000000  -0.000000   0.000000   0.000000
    19  C   -0.000000  -0.000000  -0.000000  -0.000000  -0.000000  -0.000000
    20  H    0.000000   0.000000  -0.000000  -0.000000   0.000000   0.000000
    21  C   -0.000000   0.000000  -0.000000   0.000000  -0.000000   0.000000
    22  H    0.000000  -0.000000   0.000000   0.000000   0.000000   0.000000
    23  C    0.000000   0.000000  -0.000000   0.000000   0.000000   0.000000
    24  H    0.000000  -0.000000   0.000000  -0.000000  -0.000000  -0.000000
    25  H    0.000000  -0.000000  -0.000000  -0.000000  -0.000000  -0.000000
    26  C   -0.000000  -0.000000   0.000000   0.000000  -0.000000   0.000000
    27  H   -0.000000   0.000000   0.000000  -0.000000  -0.000000   0.000000
    28  H   -0.000000  -0.000000  -0.000000  -0.000000   0.000000  -0.000000
               7          8          9         10         11         12
     1  C    0.000000  -0.000000   0.000000  -0.000000  -0.000000   0.000000
     2  C   -0.000000   0.000000  -0.000000   0.000000   0.000000  -0.000000
     3  H   -0.000000   0.000000   0.000000   0.000000  -0.000000  -0.000000
     4  H    0.000000   0.000000   0.000000  -0.000000  -0.000000  -0.000000
     5  C    0.000000  -0.000000  -0.000000   0.000000  -0.000000   0.000000
     6  C   -0.000000   0.000000  -0.000000   0.000000   0.000000  -0.000000
     7  H   -0.000000   0.000000  -0.000000   0.000000   0.000000   0.000000
     8  H    0.000000   0.000000  -0.000000   0.000000  -0.000000  -0.000000
     9  C   -0.000000  -0.000000   0.000001   0.000000  -0.000000   0.000000
    10  H    0.000000   0.000000   0.000000  -0.000000   0.000000  -0.000000
    11  H    0.000000  -0.000000  -0.000000   0.000000  -0.000000   0.000000
    12  C    0.000000  -0.000000   0.000000  -0.000000   0.000000   0.000000
    13  H   -0.000000  -0.000000  -0.000000   0.000000   0.000000   0.000000
    14  C   -0.000000   0.000000  -0.000000  -0.000000  -0.000000   0.000000
    15  H    0.000000   0.000000   0.000000   0.000000  -0.000000   0.000000
    16  C    0.000000  -0.000000  -0.000000   0.000000   0.000000  -0.000000
    17  H    0.000000   0.000000  -0.000000  -0.000000   0.000000  -0.000000
    18  H   -0.000000   0.000000  -0.000000   0.000000   0.000000   0.000000
    19  C   -0.000000  -0.000000  -0.000000   0.000000   0.000000   0.000000
    20  H   -0.000000  -0.000000  -0.000000   0.000000  -0.000000  -0.000000
    21  C    0.000000   0.000000   0.000000   0.000000  -0.000000   0.000000
    22  H    0.000000   0.000000  -0.000000  -0.000000  -0.000000  -0.000000
    23  C    0.000000  -0.000000   0.000000   0.000000  -0.000000  -0.000000
    24  H    0.000000  -0.000000   0.000000  -0.000000  -0.000000   0.000000
    25  H   -0.000000   0.000000  -0.000000   0.000000   0.000000  -0.000000
    26  C    0.000000   0.000000  -0.000000  -0.000000   0.000000   0.000000
    27  H    0.000000   0.000000   0.000000  -0.000000  -0.000000   0.000000
    28  H   -0.000000  -0.000000  -0.000000   0.000000   0.000000  -0.000000
              13         14         15         16         17         18
     1  C    0.000000   0.000000  -0.000000   0.000000  -0.000000   0.000000
     2  C   -0.000000   0.000000   0.000000  -0.000000   0.000000  -0.000000
     3  H   -0.000000   0.000000   0.000000  -0.000000   0.000000   0.000000
     4  H   -0.000000   0.000000  -0.000000  -0.000000  -0.000000  -0.000000
     5  C   -0.000000   0.000000   0.000000   0.000000  -0.000000   0.000000
     6  C    0.000000  -0.000000   0.000000   0.000000   0.000000   0.000000
     7  H   -0.000000  -0.000000   0.000000   0.000000   0.000000  -0.000000
     8  H   -0.000000   0.000000   0.000000  -0.000000   0.000000   0.000000
     9  C   -0.000000  -0.000000   0.000000  -0.000000  -0.000000  -0.000000
    10  H    0.000000  -0.000000   0.000000   0.000000  -0.000000   0.000000
    11  H    0.000000  -0.000000  -0.000000   0.000000   0.000000   0.000000
    12  C    0.000000   0.000000   0.000000  -0.000000  -0.000000   0.000000
    13  H    0.000000  -0.000000  -0.000000   0.000000   0.000000  -0.000000
    14  C   -0.000000  -0.000000   0.000000   0.000000  -0.000000   0.000000
    15  H   -0.000000   0.000000   0.000000  -0.000000   0.000000  -0.000000
    16  C    0.000000   0.000000  -0.000000  -0.000000   0.000000   0.000000
    17  H    0.000000  -0.000000   0.000000   0.000000   0.000000  -0.000000
    18  H   -0.000000   0.000000  -0.000000   0.000000  -0.000000   0.000000
    19  C   -0.000000   0.000000  -0.000000   0.000000  -0.000000   0.000000
    20  H   -0.000000  -0.000000   0.000000   0.000000   0.000000  -0.000000
    21  C    0.000000  -0.000000   0.000000  -0.000000   0.000000  -0.000000
    22  H    0.000000  -0.000000   0.000000  -0.000000   0.000000  -0.000000
    23  C    0.000000  -0.000000  -0.000000   0.000000   0.000000  -0.000000
    24  H    0.000000   0.000000   0.000000   0.000000  -0.000000   0.000000
    25  H    0.000000   0.000000  -0.000000   0.000000  -0.000000   0.000000
    26  C    0.000000  -0.000000   0.000000   0.000000  -0.000000  -0.000000
    27  H    0.000000  -0.000000   0.000000   0.000000  -0.000000  -0.000000
[...]
     3  H   -0.000000  -0.000000   0.000000   0.000000
     4  H   -0.000000   0.000000   0.000000  -0.000000
     5  C   -0.000000  -0.000000  -0.000000   0.000000
     6  C   -0.000000   0.000000   0.000000  -0.000000
     7  H    0.000000  -0.000000   0.000000  -0.000000
     8  H    0.000000   0.000000  -0.000000   0.000000
     9  C   -0.000000  -0.000000   0.000000  -0.000000
    10  H    0.000000  -0.000000   0.000000  -0.000000
    11  H    0.000000  -0.000000  -0.000000   0.000000
    12  C    0.000000   0.000000   0.000000  -0.000000
    13  H    0.000000   0.000000   0.000000  -0.000000
    14  C    0.000000   0.000000  -0.000000   0.000000
    15  H   -0.000000   0.000000  -0.000000  -0.000000
    16  C    0.000000  -0.000000   0.000000   0.000000
    17  H   -0.000000  -0.000000  -0.000000  -0.000000
    18  H    0.000000  -0.000000   0.000000   0.000000
    19  C   -0.000000  -0.000000   0.000000  -0.000000
    20  H   -0.000000  -0.000000   0.000000  -0.000000
    21  C    0.000000  -0.000000  -0.000000   0.000000
    22  H   -0.000000  -0.000000   0.000000  -0.000000
    23  C   -0.000000   0.000000   0.000000   0.000000
    24  H   -0.000000  -0.000000  -0.000000  -0.000000
    25  H    0.000000  -0.000000  -0.000000   0.000000
    26  C   -0.000000   0.000000  -0.000000  -0.000000
    27  H   -0.000000  -0.000000  -0.000000   0.000000
    28  H    0.000000  -0.000000   0.000000  -0.000000
 Mulliken charges and spin densities:
               1          2
     1  C   -0.204862  -0.000001
     2  C   -0.202720   0.000001
     3  H    0.148049   0.000000
     4  H    0.174789  -0.000000
     5  C   -0.186495  -0.000001
     6  C   -0.198617   0.000001
     7  H    0.166510  -0.000000
     8  H    0.173392  -0.000000
     9  C   -0.228438   0.000000
    10  H    0.131633  -0.000000
    11  H    0.148013  -0.000000
    12  C   -0.163079   0.000001
    13  H    0.151616  -0.000000
    14  C   -0.203505  -0.000001
    15  H    0.148071   0.000000
    16  C   -0.194140  -0.000000
    17  H    0.121853  -0.000000
    18  H    0.133245   0.000000
    19  C   -0.186101  -0.000001
    20  H    0.167587   0.000000
    21  C   -0.159906   0.000001
    22  H    0.150517  -0.000000
    23  C   -0.227346  -0.000001
    24  H    0.147365   0.000000
    25  H    0.131817   0.000000
    26  C   -0.193098   0.000000
    27  H    0.133348  -0.000000
    28  H    0.120504  -0.000000
 Sum of Mulliken charges =  -0.00000   0.00000
 Mulliken charges and spin densities with hydrogens summed into heavy atoms:
               1          2
     1  C   -0.056813  -0.000001
     2  C   -0.027930   0.000001
     5  C   -0.019985  -0.000001
     6  C   -0.025226   0.000001
     9  C    0.051209   0.000000
    12  C   -0.011464   0.000001
    14  C   -0.055434  -0.000001
    16  C    0.060958  -0.000000
    19  C   -0.018514  -0.000001
    21  C   -0.009389   0.000001
    23  C    0.051836  -0.000000
    26  C    0.060753   0.000000
 Electronic spatial extent (au):  <R**2>=           2269.8626
 Charge=              0.0000 electrons
 Dipole moment (field-independent basis, Debye):
    X=              0.0018    Y=             -0.0090    Z=             -0.0059  Tot=              0.0109
 Quadrupole moment (field-independent basis, Debye-Ang):
   XX=            -70.1991   YY=            -68.1515   ZZ=            -75.5187
   XY=             -3.3945   XZ=             -3.6224   YZ=             -1.7017
 Traceless Quadrupole moment (field-independent basis, Debye-Ang):
   XX=              1.0907   YY=              3.1383   ZZ=             -4.2289
   XY=             -3.3945   XZ=             -3.6224   YZ=             -1.7017
 Octapole moment (field-independent basis, Debye-Ang**2):
  XXX=              0.0047  YYY=             -0.0627  ZZZ=             -0.0306  XYY=              0.0011
  XXY=             -0.0089  XXZ=             -0.0242  XZZ=              0.0089  YZZ=             -0.0185
  YYZ=             -0.0072  XYZ=              0.0086
 Hexadecapole moment (field-independent basis, Debye-Ang**3):
 XXXX=          -2019.2895 YYYY=           -610.5060 ZZZZ=           -379.6205 XXXY=           -108.7965
 XXXZ=           -143.2596 YYYX=            -61.3619 YYYZ=             -4.6479 ZZZX=            -87.6940
 ZZZY=            -16.5883 XXYY=           -435.2076 XXZZ=           -424.3100 YYZZ=           -180.1234
 XXYZ=            -24.0113 YYXZ=            -32.1183 ZZXY=            -45.3150
 N-N= 6.792472811219D+02 E-N=-2.441135002043D+03  KE= 4.643458978002D+02
                          Isotropic Fermi Contact Couplings
        Atom                 a.u.       MegaHertz       Gauss      10(-4) cm-1
     1  C(13)             -0.00000      -0.00007      -0.00002      -0.00002
     2  C(13)              0.00000       0.00010       0.00004       0.00003
     3  H(1)               0.00000       0.00004       0.00001       0.00001
     4  H(1)              -0.00000      -0.00006      -0.00002      -0.00002
     5  C(13)             -0.00000      -0.00007      -0.00002      -0.00002
     6  C(13)              0.00000       0.00006       0.00002       0.00002
     7  H(1)              -0.00000      -0.00001      -0.00000      -0.00000
     8  H(1)              -0.00000      -0.00004      -0.00002      -0.00001
     9  C(13)              0.00000       0.00013       0.00005       0.00004
    10  H(1)              -0.00000      -0.00003      -0.00001      -0.00001
    11  H(1)              -0.00000      -0.00010      -0.00003      -0.00003
    12  C(13)              0.00000       0.00008       0.00003       0.00003
    13  H(1)              -0.00000      -0.00001      -0.00001      -0.00000
    14  C(13)             -0.00000      -0.00010      -0.00003      -0.00003
    15  H(1)               0.00000       0.00007       0.00003       0.00002
    16  C(13)             -0.00000      -0.00006      -0.00002      -0.00002
    17  H(1)              -0.00000      -0.00004      -0.00001      -0.00001
    18  H(1)              -0.00000      -0.00001      -0.00000      -0.00000
    19  C(13)             -0.00000      -0.00010      -0.00003      -0.00003
    20  H(1)               0.00000       0.00009       0.00003       0.00003
    21  C(13)              0.00000       0.00009       0.00003       0.00003
    22  H(1)              -0.00000      -0.00007      -0.00003      -0.00002
    23  C(13)             -0.00000      -0.00020      -0.00007      -0.00007
    24  H(1)               0.00000       0.00014       0.00005       0.00005
    25  H(1)               0.00000       0.00016       0.00006       0.00005
    26  C(13)              0.00000       0.00013       0.00004       0.00004
    27  H(1)              -0.00000      -0.00005      -0.00002      -0.00002
    28  H(1)              -0.00000      -0.00010      -0.00004      -0.00003
 --------------------------------------------------------
       Center         ----  Spin Dipole Couplings  ----
                      3XX-RR        3YY-RR        3ZZ-RR
 --------------------------------------------------------
     1   Atom        0.000000      0.000001     -0.000001
     2   Atom       -0.000000     -0.000000      0.000001
     3   Atom       -0.000000      0.000000     -0.000000
     4   Atom        0.000000     -0.000000      0.000000
     5   Atom        0.000000      0.000001     -0.000001
     6   Atom       -0.000000     -0.000001      0.000001
     7   Atom       -0.000000      0.000000     -0.000000
     8   Atom        0.000000     -0.000000      0.000000
     9   Atom        0.000000     -0.000000      0.000000
    10   Atom       -0.000000     -0.000000      0.000000
    11   Atom       -0.000000      0.000000     -0.000000
    12   Atom       -0.000000     -0.000001      0.000001
    13   Atom       -0.000000      0.000000      0.000000
    14   Atom        0.000000      0.000001     -0.000001
    15   Atom       -0.000000      0.000000     -0.000000
    16   Atom       -0.000000      0.000000     -0.000000
    17   Atom        0.000000     -0.000000     -0.000000
    18   Atom        0.000000     -0.000000      0.000000
    19   Atom        0.000000      0.000000     -0.000000
    20   Atom        0.000000     -0.000000      0.000000
    21   Atom       -0.000000     -0.000000      0.000000
    22   Atom       -0.000000      0.000000     -0.000000
    23   Atom       -0.000000      0.000000     -0.000000
    24   Atom       -0.000000     -0.000000      0.000000
    25   Atom        0.000000      0.000000     -0.000000
    26   Atom        0.000000     -0.000000      0.000000
    27   Atom        0.000000     -0.000000     -0.000000
    28   Atom       -0.000000     -0.000000      0.000000
 --------------------------------------------------------
                        XY            XZ            YZ
 --------------------------------------------------------
     1   Atom       -0.000000     -0.000001     -0.000000
     2   Atom        0.000000      0.000001      0.000000
     3   Atom       -0.000000      0.000000      0.000000
     4   Atom        0.000000     -0.000000      0.000000
     5   Atom       -0.000000     -0.000001     -0.000000
     6   Atom        0.000000      0.000001      0.000000
     7   Atom        0.000000     -0.000000     -0.000000
     8   Atom        0.000000     -0.000000      0.000000
     9   Atom        0.000000      0.000000      0.000000
    10   Atom       -0.000000      0.000000     -0.000000
    11   Atom        0.000000      0.000000      0.000000
    12   Atom        0.000000      0.000001      0.000000
    13   Atom        0.000000      0.000000     -0.000000
    14   Atom        0.000000     -0.000001      0.000000
    15   Atom       -0.000000      0.000000      0.000000
    16   Atom        0.000000      0.000000      0.000000
    17   Atom       -0.000000     -0.000000     -0.000000
    18   Atom        0.000000     -0.000000      0.000000
    19   Atom       -0.000000     -0.000000     -0.000000
    20   Atom        0.000000     -0.000000     -0.000000
    21   Atom        0.000000      0.000001     -0.000000
    22   Atom        0.000000      0.000000     -0.000000
    23   Atom       -0.000000      0.000000      0.000000
    24   Atom       -0.000000     -0.000000     -0.000000
    25   Atom       -0.000000     -0.000000      0.000000
    26   Atom       -0.000000     -0.000000      0.000000
    27   Atom       -0.000000      0.000000     -0.000000
    28   Atom       -0.000000      0.000000      0.000000
 --------------------------------------------------------


 ---------------------------------------------------------------------------------
              Anisotropic Spin Dipole Couplings in Principal Axis System
 ---------------------------------------------------------------------------------

       Atom             a.u.   MegaHertz   Gauss  10(-4) cm-1        Axes

              Baa    -0.0000    -0.000    -0.000    -0.000  0.3668  0.0289  0.9298
     1 C(13)  Bbb     0.0000     0.000     0.000     0.000  0.4679  0.8582 -0.2112
              Bcc     0.0000     0.000     0.000     0.000  0.8041 -0.5125 -0.3013
 
              Baa    -0.0000    -0.000    -0.000    -0.000  0.6300  0.6472 -0.4292
     2 C(13)  Bbb    -0.0000    -0.000    -0.000    -0.000 -0.6796  0.7269  0.0985
              Bcc     0.0000     0.000     0.000     0.000  0.3758  0.2296  0.8978
 
              Baa    -0.0000    -0.000    -0.000    -0.000  0.9665  0.1441 -0.2123
     3 H(1)   Bbb     0.0000     0.000     0.000     0.000  0.2150 -0.0033  0.9766
              Bcc     0.0000     0.000     0.000     0.000 -0.1400  0.9896  0.0342
 
              Baa    -0.0000    -0.000    -0.000    -0.000 -0.1420  0.9834 -0.1130
     4 H(1)   Bbb     0.0000     0.000     0.000     0.000  0.4843  0.1686  0.8585
              Bcc     0.0000     0.000     0.000     0.000  0.8633  0.0672 -0.5001
 
              Baa    -0.0000    -0.000    -0.000    -0.000  0.3713  0.1591  0.9148
     5 C(13)  Bbb     0.0000     0.000     0.000     0.000  0.9269 -0.0059 -0.3752
              Bcc     0.0000     0.000     0.000     0.000 -0.0543  0.9872 -0.1497
 
              Baa    -0.0000    -0.000    -0.000    -0.000 -0.3361  0.9417  0.0155
     6 C(13)  Bbb    -0.0000    -0.000    -0.000    -0.000  0.8100  0.2974 -0.5053
              Bcc     0.0000     0.000     0.000     0.000  0.4805  0.1573  0.8628
 
              Baa    -0.0000    -0.000    -0.000    -0.000  0.7524 -0.6337  0.1796
     7 H(1)   Bbb    -0.0000    -0.000    -0.000    -0.000  0.1312  0.4113  0.9020
              Bcc     0.0000     0.000     0.000     0.000  0.6455  0.6551 -0.3927
 
              Baa    -0.0000    -0.000    -0.000    -0.000 -0.0954  0.9887 -0.1152
     8 H(1)   Bbb     0.0000     0.000     0.000     0.000  0.6303  0.1496  0.7618
              Bcc     0.0000     0.000     0.000     0.000  0.7704  0.0001 -0.6375
 
              Baa    -0.0000    -0.000    -0.000    -0.000 -0.4120  0.9095  0.0550
     9 C(13)  Bbb     0.0000     0.000     0.000     0.000 -0.5695 -0.3042  0.7636
              Bcc     0.0000     0.000     0.000     0.000  0.7113  0.2833  0.6433
 
              Baa    -0.0000    -0.000    -0.000    -0.000  0.7664  0.5324 -0.3595
    10 H(1)   Bbb    -0.0000    -0.000    -0.000    -0.000 -0.3722  0.8241  0.4271
              Bcc     0.0000     0.000     0.000     0.000  0.5236 -0.1935  0.8297
 
              Baa    -0.0000    -0.000    -0.000    -0.000 -0.4722  0.0865  0.8772
    11 H(1)   Bbb    -0.0000    -0.000    -0.000    -0.000  0.7815 -0.4193  0.4620
              Bcc     0.0000     0.000     0.000     0.000  0.4077  0.9037  0.1304
 
              Baa    -0.0000    -0.000    -0.000    -0.000 -0.4592  0.8741  0.1582
    12 C(13)  Bbb    -0.0000    -0.000    -0.000    -0.000  0.8077  0.4850 -0.3353
              Bcc     0.0000     0.000     0.000     0.000  0.3698  0.0262  0.9287
 
              Baa    -0.0000    -0.000    -0.000    -0.000  0.7981 -0.5014 -0.3342
    13 H(1)   Bbb     0.0000     0.000     0.000     0.000  0.3549 -0.0571  0.9332
              Bcc     0.0000     0.000     0.000     0.000  0.4870  0.8633 -0.1324
 
              Baa    -0.0000    -0.000    -0.000    -0.000  0.5451 -0.0697  0.8354
    14 C(13)  Bbb     0.0000     0.000     0.000     0.000  0.8108  0.2973 -0.5042
              Bcc     0.0000     0.000     0.000     0.000 -0.2133  0.9522  0.2186
 
              Baa    -0.0000    -0.000    -0.000    -0.000  0.7520  0.1507 -0.6417
    15 H(1)   Bbb     0.0000     0.000     0.000     0.000  0.6517 -0.0233  0.7581
              Bcc     0.0000     0.000     0.000     0.000 -0.0993  0.9883  0.1157
 
              Baa    -0.0000    -0.000    -0.000    -0.000  0.7251  0.0125 -0.6885
    16 C(13)  Bbb     0.0000     0.000     0.000     0.000  0.6885 -0.0287  0.7247
              Bcc     0.0000     0.000     0.000     0.000  0.0107  0.9995  0.0295
 
              Baa    -0.0000    -0.000    -0.000    -0.000  0.5146  0.5613  0.6481
    17 H(1)   Bbb     0.0000     0.000     0.000     0.000 -0.2305 -0.6375  0.7352
              Bcc     0.0000     0.000     0.000     0.000  0.8258 -0.5278 -0.1987
 
              Baa    -0.0000    -0.000    -0.000    -0.000 -0.3987  0.8547 -0.3324
    18 H(1)   Bbb     0.0000     0.000     0.000     0.000  0.8386  0.4865  0.2451
              Bcc     0.0000     0.000     0.000     0.000 -0.3712  0.1810  0.9107
 
              Baa    -0.0000    -0.000    -0.000    -0.000  0.5101  0.1321  0.8499
    19 C(13)  Bbb     0.0000     0.000     0.000     0.000 -0.5714  0.7906  0.2201
              Bcc     0.0000     0.000     0.000     0.000  0.6429  0.5979 -0.4788
 
              Baa    -0.0000    -0.000    -0.000    -0.000 -0.5677  0.7903  0.2305
    20 H(1)   Bbb     0.0000     0.000     0.000     0.000  0.4630  0.0750  0.8832
              Bcc     0.0000     0.000     0.000     0.000  0.6807  0.6081 -0.4085
 
              Baa    -0.0000    -0.000    -0.000    -0.000  0.6972 -0.5020 -0.5117
    21 C(13)  Bbb    -0.0000    -0.000    -0.000    -0.000  0.4511  0.8620 -0.2310
              Bcc     0.0000     0.000     0.000     0.000  0.5571 -0.0698  0.8275
 
              Baa    -0.0000    -0.000    -0.000    -0.000  0.7398 -0.4716 -0.4800
    22 H(1)   Bbb     0.0000     0.000     0.000     0.000  0.5414 -0.0065  0.8408
              Bcc     0.0000     0.000     0.000     0.000  0.3996  0.8818 -0.2505
 
              Baa    -0.0000    -0.000    -0.000    -0.000  0.8543  0.4647 -0.2328
    23 C(13)  Bbb    -0.0000    -0.000    -0.000    -0.000  0.1747  0.1652  0.9707
              Bcc     0.0000     0.000     0.000     0.000 -0.4895  0.8699 -0.0599
 
              Baa    -0.0000    -0.000    -0.000    -0.000  0.6686  0.7295  0.1440
    24 H(1)   Bbb     0.0000     0.000     0.000     0.000 -0.1836 -0.0256  0.9827
              Bcc     0.0000     0.000     0.000     0.000  0.7206 -0.6835  0.1169
 
              Baa    -0.0000    -0.000    -0.000    -0.000  0.3547 -0.0580  0.9332
    25 H(1)   Bbb     0.0000     0.000     0.000     0.000  0.7796  0.5694 -0.2609
              Bcc     0.0000     0.000     0.000     0.000 -0.5162  0.8200  0.2471
 
              Baa    -0.0000    -0.000    -0.000    -0.000  0.0932  0.9952  0.0310
    26 C(13)  Bbb    -0.0000    -0.000    -0.000    -0.000  0.6767 -0.0862  0.7312
              Bcc     0.0000     0.000     0.000     0.000  0.7304 -0.0471 -0.6814
 
              Baa    -0.0000    -0.000    -0.000    -0.000  0.5208  0.8509  0.0693
    27 H(1)   Bbb    -0.0000    -0.000    -0.000    -0.000 -0.2428  0.0698  0.9676
              Bcc     0.0000     0.000     0.000     0.000  0.8184 -0.5207  0.2429
 
              Baa    -0.0000    -0.000    -0.000    -0.000  0.3772  0.8724 -0.3108
    28 H(1)   Bbb     0.0000     0.000     0.000     0.000  0.8776 -0.4439 -0.1810
              Bcc     0.0000     0.000     0.000     0.000  0.2959  0.2045  0.9331
 

 ---------------------------------------------------------------------------------

 No NMR shielding tensors so no spin-rotation constants.
 Leave Link  601 at Tue Aug  4 04:38:19 2020, MaxMem=  6442450944 cpu:               7.9 elap:               0.4
 (Enter /scratch/scicomp/CentOS/7.3.1611/Haswell/software/Gaussian/g16/l9999.exe)
 1\1\GINC-ATLAS-205\SP\UwB97XD\def2TZVP\C12H16\BOCHEN\04-Aug-2020\0\\#p
  uwb97xd guess=mix def2tzvp # scrf=(iefpcm,solvent=Cyclohexane,read) n
 osym 6d 10f\\endo-2 xp-pcm for eta=3\\0,1\C,0,-3.127383,-0.4412,0.2569
 46\C,0,-0.696508,-0.242696,-1.184341\H,0,-4.079078,-0.538518,0.766502\
 H,0,0.264362,-0.155913,-1.675481\C,0,1.144636,1.421194,0.762509\C,0,0.
 696508,0.242696,1.184341\H,0,0.551234,2.317867,0.893879\H,0,-0.264362,
 0.155913,1.675481\C,0,1.535929,-0.997742,1.081645\H,0,2.043151,-1.1243
 17,2.046516\H,0,0.898815,-1.8736,0.960552\C,0,2.446597,1.527191,0.1055
 12\H,0,2.848349,2.513477,-0.093966\C,0,3.127383,0.4412,-0.256946\H,0,4
 .079078,0.538518,-0.766502\C,0,2.581145,-0.943485,-0.038369\H,0,2.1500
 37,-1.29813,-0.982721\H,0,3.394647,-1.635414,0.188466\C,0,-1.144636,-1
 .421194,-0.762509\H,0,-0.551234,-2.317867,-0.893879\C,0,-2.446597,-1.5
 27191,-0.105512\H,0,-2.848349,-2.513477,0.093966\C,0,-1.535929,0.99774
 2,-1.081645\H,0,-0.898815,1.8736,-0.960552\H,0,-2.043151,1.124317,-2.0
 46516\C,0,-2.581145,0.943485,0.038369\H,0,-3.394647,1.635414,-0.188467
 \H,0,-2.150037,1.29813,0.982721\\Version=ES64L-G16RevB.01\HF=-466.8059
 522\S2=0.\S2-1=0.\S2A=0.\RMSD=3.080e-09\Dipole=0.0007119,-0.0035272,-0
 .0023017\Quadrupole=0.8108731,2.3332275,-3.1441006,-2.5237021,-2.69316
 58,-1.2651721\PG=CI [X(C12H16)]\\@


 DON'T WORRY CHARLIE BROWN...WE LEARN MORE FROM LOSING 
 THAN WE DO FROM WINNING.
 THEN THAT MAKES ME THE SMARTEST PERSON IN THE WORLD...
 CHARLES SCHULZ 'PEANUTS'
 Job cpu time:       0 days  2 hours 13 minutes 18.9 seconds.
 Elapsed time:       0 days  0 hours  5 minutes 36.4 seconds.
 File lengths (MBytes):  RWF=    616 Int=      0 D2E=      0 Chk=     24 Scr=      1
 Normal termination of Gaussian 16 at Tue Aug  4 04:38:19 2020.
