 Entering Gaussian System, Link 0=g16
 Input=meso-TS_1_2_xp-Ger.com
 Output=meso-TS_1_2_xp-Ger.log
 Initial command:
 /scratch/scicomp/CentOS/7.3.1611/Haswell/software/Gaussian/g16/l1.exe "/scratch/bochen/cyclohexadiene-dimerization/wb97xd-def2tzvp/xp-pcm/meso/Gau-407169.inp" -scrdir="/scratch/bochen/cyclohexadiene-dimerization/wb97xd-def2tzvp/xp-pcm/meso/"
 Entering Link 1 = /scratch/scicomp/CentOS/7.3.1611/Haswell/software/Gaussian/g16/l1.exe PID=    407170.
  
 Copyright (c) 1988-2017, Gaussian, Inc.  All Rights Reserved.
  
 This is part of the Gaussian(R) 16 program.  It is based on
 the Gaussian(R) 09 system (copyright 2009, Gaussian, Inc.),
 the Gaussian(R) 03 system (copyright 2003, Gaussian, Inc.),
 the Gaussian(R) 98 system (copyright 1998, Gaussian, Inc.),
 the Gaussian(R) 94 system (copyright 1995, Gaussian, Inc.),
 the Gaussian 92(TM) system (copyright 1992, Gaussian, Inc.),
 the Gaussian 90(TM) system (copyright 1990, Gaussian, Inc.),
 the Gaussian 88(TM) system (copyright 1988, Gaussian, Inc.),
 the Gaussian 86(TM) system (copyright 1986, Carnegie Mellon
 University), and the Gaussian 82(TM) system (copyright 1983,
 Carnegie Mellon University). Gaussian is a federally registered
 trademark of Gaussian, Inc.
  
 This software contains proprietary and confidential information,
 including trade secrets, belonging to Gaussian, Inc.
  
 This software is provided under written license and may be
 used, copied, transmitted, or stored only in accord with that
 written license.
  
 The following legend is applicable only to US Government
 contracts under FAR:
  
                    RESTRICTED RIGHTS LEGEND
  
 Use, reproduction and disclosure by the US Government is
 subject to restrictions as set forth in subparagraphs (a)
 and (c) of the Commercial Computer Software - Restricted
 Rights clause in FAR 52.227-19.
  
 Gaussian, Inc.
 340 Quinnipiac St., Bldg. 40, Wallingford CT 06492
  
  
 ---------------------------------------------------------------
 Warning -- This program may not be used in any manner that
 competes with the business of Gaussian, Inc. or will provide
 assistance to any competitor of Gaussian, Inc.  The licensee
 of this program is prohibited from giving any competitor of
 Gaussian, Inc. access to this program.  By using this program,
 the user acknowledges that Gaussian, Inc. is engaged in the
 business of creating and licensing software in the field of
 computational chemistry and represents and warrants to the
 licensee that it is not a competitor of Gaussian, Inc. and that
 it will not use this program in any manner prohibited above.
 ---------------------------------------------------------------
  

 Cite this work as:
 Gaussian 16, Revision B.01,
 M. J. Frisch, G. W. Trucks, H. B. Schlegel, G. E. Scuseria, 
 M. A. Robb, J. R. Cheeseman, G. Scalmani, V. Barone, 
 G. A. Petersson, H. Nakatsuji, X. Li, M. Caricato, A. V. Marenich, 
 J. Bloino, B. G. Janesko, R. Gomperts, B. Mennucci, H. P. Hratchian, 
 J. V. Ortiz, A. F. Izmaylov, J. L. Sonnenberg, D. Williams-Young, 
 F. Ding, F. Lipparini, F. Egidi, J. Goings, B. Peng, A. Petrone, 
 T. Henderson, D. Ranasinghe, V. G. Zakrzewski, J. Gao, N. Rega, 
 G. Zheng, W. Liang, M. Hada, M. Ehara, K. Toyota, R. Fukuda, 
 J. Hasegawa, M. Ishida, T. Nakajima, Y. Honda, O. Kitao, H. Nakai, 
 T. Vreven, K. Throssell, J. A. Montgomery, Jr., J. E. Peralta, 
 F. Ogliaro, M. J. Bearpark, J. J. Heyd, E. N. Brothers, K. N. Kudin, 
 V. N. Staroverov, T. A. Keith, R. Kobayashi, J. Normand, 
 K. Raghavachari, A. P. Rendell, J. C. Burant, S. S. Iyengar, 
 J. Tomasi, M. Cossi, J. M. Millam, M. Klene, C. Adamo, R. Cammi, 
 J. W. Ochterski, R. L. Martin, K. Morokuma, O. Farkas, 
 J. B. Foresman, and D. J. Fox, Gaussian, Inc., Wallingford CT, 2016.
 
 ******************************************
 Gaussian 16:  ES64L-G16RevB.01 20-Dec-2017
                 4-Aug-2020 
 ******************************************
 %chk=meso-TS_1_2_xp-12.chk
 %nproc=24
 Will use up to   24 processors via shared memory.
 %mem=48GB
 ----------------------------------------------------------------------
 #p uwb97xd guess=mix def2tzvp # scrf=(iefpcm,solvent=Cyclohexane,read)
  nosym 6d 10f
 ----------------------------------------------------------------------
 1/38=1,40=2,172=1/1;
 2/12=2,15=1,17=6,18=5,40=1/2;
 3/5=44,7=101,8=22,11=2,25=1,30=1,70=2203,72=17,74=-58,116=2/1,2,3;
 4/13=-1/1;
 5/5=2,38=5,53=17/2;
 6/7=2,8=2,9=2,10=2,28=1/1;
 99/5=1,9=1/99;
 Leave Link    1 at Tue Aug  4 13:47:23 2020, MaxMem=  6442450944 cpu:              20.5 elap:               0.9
 (Enter /scratch/scicomp/CentOS/7.3.1611/Haswell/software/Gaussian/g16/l101.exe)
 -----------------------
 endo-2 xp-pcm for eta=3
 -----------------------
 Symbolic Z-matrix:
 Charge =  0 Multiplicity = 1
 6                    -3.11867  -0.43296   0.24723 
 6                    -0.50947  -0.16798  -0.858 
 1                    -4.08355  -0.54911   0.72649 
 1                     0.36016  -0.11611  -1.50344 
 6                     1.10134   1.41549   0.68252 
 6                     0.50947   0.16798   0.858 
 1                     0.54041   2.31958   0.88281 
 1                    -0.36016   0.11611   1.50344 
 6                     1.46327  -0.99988   0.98774 
 1                     1.90051  -0.94215   1.99065 
 1                     0.92683  -1.94752   0.93419 
 6                     2.40882   1.52107   0.11687 
 1                     2.82476   2.50846  -0.04747 
 6                     3.11867   0.43296  -0.24723 
 1                     4.08355   0.54911  -0.72649 
 6                     2.59215  -0.95852  -0.04359 
 1                     2.24958  -1.35685  -1.00702 
 1                     3.40107  -1.62206   0.27129 
 6                    -1.10134  -1.41549  -0.68252 
 1                    -0.54041  -2.31958  -0.88281 
 6                    -2.40882  -1.52107  -0.11687 
 1                    -2.82476  -2.50846   0.04747 
 6                    -1.46327   0.99988  -0.98774 
 1                    -0.92683   1.94752  -0.93419 
 1                    -1.90051   0.94215  -1.99065 
 6                    -2.59215   0.95852   0.04359 
 1                    -3.40107   1.62206  -0.27129 
 1                    -2.24958   1.35685   1.00702 
 
 ITRead=  0  0  0  0  0  0  0  0  0  0  0  0  0  0  0  0  0  0  0  0
 ITRead=  0  0  0  0  0  0  0  0
 MicOpt= -1 -1 -1 -1 -1 -1 -1 -1 -1 -1 -1 -1 -1 -1 -1 -1 -1 -1 -1 -1
 MicOpt= -1 -1 -1 -1 -1 -1 -1 -1
 NAtoms=     28 NQM=       28 NQMF=       0 NMMI=      0 NMMIF=      0
                NMic=       0 NMicF=      0.
                    Isotopes and Nuclear Properties:
 (Nuclear quadrupole moments (NQMom) in fm**2, nuclear magnetic moments (NMagM)
  in nuclear magnetons)

  Atom         1           2           3           4           5           6           7           8           9          10
 IAtWgt=          12          12           1           1          12          12           1           1          12           1
 AtmWgt=  12.0000000  12.0000000   1.0078250   1.0078250  12.0000000  12.0000000   1.0078250   1.0078250  12.0000000   1.0078250
 NucSpn=           0           0           1           1           0           0           1           1           0           1
 AtZEff=  -0.0000000  -0.0000000  -0.0000000  -0.0000000  -0.0000000  -0.0000000  -0.0000000  -0.0000000  -0.0000000  -0.0000000
 NQMom=    0.0000000   0.0000000   0.0000000   0.0000000   0.0000000   0.0000000   0.0000000   0.0000000   0.0000000   0.0000000
 NMagM=    0.0000000   0.0000000   2.7928460   2.7928460   0.0000000   0.0000000   2.7928460   2.7928460   0.0000000   2.7928460
 AtZNuc=   6.0000000   6.0000000   1.0000000   1.0000000   6.0000000   6.0000000   1.0000000   1.0000000   6.0000000   1.0000000

  Atom        11          12          13          14          15          16          17          18          19          20
 IAtWgt=           1          12           1          12           1          12           1           1          12           1
 AtmWgt=   1.0078250  12.0000000   1.0078250  12.0000000   1.0078250  12.0000000   1.0078250   1.0078250  12.0000000   1.0078250
 NucSpn=           1           0           1           0           1           0           1           1           0           1
 AtZEff=  -0.0000000  -0.0000000  -0.0000000  -0.0000000  -0.0000000  -0.0000000  -0.0000000  -0.0000000  -0.0000000  -0.0000000
 NQMom=    0.0000000   0.0000000   0.0000000   0.0000000   0.0000000   0.0000000   0.0000000   0.0000000   0.0000000   0.0000000
 NMagM=    2.7928460   0.0000000   2.7928460   0.0000000   2.7928460   0.0000000   2.7928460   2.7928460   0.0000000   2.7928460
 AtZNuc=   1.0000000   6.0000000   1.0000000   6.0000000   1.0000000   6.0000000   1.0000000   1.0000000   6.0000000   1.0000000

  Atom        21          22          23          24          25          26          27          28
 IAtWgt=          12           1          12           1           1          12           1           1
 AtmWgt=  12.0000000   1.0078250  12.0000000   1.0078250   1.0078250  12.0000000   1.0078250   1.0078250
 NucSpn=           0           1           0           1           1           0           1           1
 AtZEff=  -0.0000000  -0.0000000  -0.0000000  -0.0000000  -0.0000000  -0.0000000  -0.0000000  -0.0000000
 NQMom=    0.0000000   0.0000000   0.0000000   0.0000000   0.0000000   0.0000000   0.0000000   0.0000000
 NMagM=    0.0000000   2.7928460   0.0000000   2.7928460   2.7928460   0.0000000   2.7928460   2.7928460
 AtZNuc=   6.0000000   1.0000000   6.0000000   1.0000000   1.0000000   6.0000000   1.0000000   1.0000000
 Leave Link  101 at Tue Aug  4 13:47:23 2020, MaxMem=  6442450944 cpu:               2.5 elap:               0.2
 (Enter /scratch/scicomp/CentOS/7.3.1611/Haswell/software/Gaussian/g16/l202.exe)
                          Input orientation:                          
 ---------------------------------------------------------------------
 Center     Atomic      Atomic             Coordinates (Angstroms)
 Number     Number       Type             X           Y           Z
 ---------------------------------------------------------------------
      1          6           0       -3.118670   -0.432956    0.247226
      2          6           0       -0.509469   -0.167984   -0.858002
      3          1           0       -4.083546   -0.549105    0.726486
      4          1           0        0.360157   -0.116106   -1.503444
      5          6           0        1.101339    1.415489    0.682520
      6          6           0        0.509469    0.167984    0.858002
      7          1           0        0.540414    2.319583    0.882812
      8          1           0       -0.360157    0.116106    1.503444
      9          6           0        1.463271   -0.999883    0.987744
     10          1           0        1.900513   -0.942148    1.990648
     11          1           0        0.926831   -1.947518    0.934189
     12          6           0        2.408817    1.521066    0.116868
     13          1           0        2.824758    2.508464   -0.047474
     14          6           0        3.118670    0.432956   -0.247226
     15          1           0        4.083546    0.549105   -0.726486
     16          6           0        2.592153   -0.958523   -0.043594
     17          1           0        2.249577   -1.356847   -1.007017
     18          1           0        3.401074   -1.622064    0.271288
     19          6           0       -1.101339   -1.415489   -0.682520
     20          1           0       -0.540414   -2.319583   -0.882812
     21          6           0       -2.408817   -1.521066   -0.116868
     22          1           0       -2.824758   -2.508464    0.047474
     23          6           0       -1.463271    0.999883   -0.987744
     24          1           0       -0.926831    1.947518   -0.934189
     25          1           0       -1.900513    0.942148   -1.990648
     26          6           0       -2.592153    0.958523    0.043594
     27          1           0       -3.401074    1.622064   -0.271288
     28          1           0       -2.249577    1.356847    1.007017
 ---------------------------------------------------------------------
                    Distance matrix (angstroms):
                    1          2          3          4          5
     1  C    0.000000
     2  C    2.845992   0.000000
     3  H    1.083590   3.928089   0.000000
     4  H    3.907362   1.084221   4.990648   0.000000
     5  C    4.627603   2.734099   5.544781   2.770121   0.000000
     6  C    3.727944   2.023803   4.650516   2.383155   1.391895
     7  H    4.622698   3.212581   5.443787   3.414570   1.082654
     8  H    3.080413   2.383155   3.861320   3.100669   2.120916
     9  C    4.675891   2.826754   5.571233   2.864252   2.461337
    10  H    5.337696   3.810794   6.128748   3.906881   2.812175
    11  H    4.374002   2.905451   5.206014   3.101168   3.376923
    12  C    5.864154   3.509937   6.841639   3.082653   1.428498
    13  H    6.638007   4.351712   7.594235   3.883616   2.167408
    14  C    6.316542   3.727944   7.333790   3.080413   2.428873
    15  H    7.333790   4.650516   8.367711   3.861320   3.410202
    16  C    5.742325   3.302767   6.732429   2.796897   2.895807
    17  H    5.589703   3.007979   6.615582   2.314257   3.443666
    18  H    6.627339   4.322267   7.574826   3.829459   3.832052
    19  C    2.428873   1.391895   3.410202   2.120916   3.837911
    20  H    3.388768   2.151965   4.275303   2.459984   4.369941
    21  C    1.349236   2.446964   2.112030   3.400547   4.645812
    22  H    2.105711   3.414425   2.425838   4.274624   5.587032
    23  C    2.513668   1.513435   3.493392   2.199152   3.088646
    24  H    3.444787   2.157625   4.353828   2.497786   2.647693
    25  H    2.895323   2.109569   3.791080   2.543206   4.047344
    26  C    1.501632   2.533667   2.227900   3.502041   3.776100
    27  H    2.138157   3.451070   2.485014   4.322766   4.606967
    28  H    2.129789   2.971764   2.659848   3.909312   3.367102
                    6          7          8          9         10
     6  C    0.000000
     7  H    2.151965   0.000000
     8  H    1.084221   2.459984   0.000000
     9  C    1.513435   3.446960   2.199152   0.000000
    10  H    2.109569   3.703520   2.543206   1.095596   0.000000
    11  H    2.157625   4.284870   2.497786   1.090251   1.753548
    12  C    2.446964   2.171458   3.400547   2.829782   3.136375
    13  H    3.414425   2.473729   4.274624   3.903053   4.112772
    14  C    2.845992   3.388768   3.907362   2.513668   2.895323
    15  H    3.928089   4.275303   4.990648   3.493392   3.791080
    16  C    2.533667   3.976662   3.502041   1.529622   2.148668
    17  H    2.971764   4.473123   3.909312   2.173654   3.046279
    18  H    3.451070   4.908556   4.322766   2.157661   2.381211
    19  C    2.734099   4.369941   2.770121   3.088646   4.047344
    20  H    3.212581   5.080106   3.414570   3.042259   4.014004
    21  C    3.509937   4.944483   3.082653   4.060156   4.831883
    22  H    4.351712   5.944090   3.883616   4.641887   5.343918
    23  C    2.826754   3.042259   2.864252   4.057865   4.894624
    24  H    2.905451   2.364896   3.101168   4.253656   4.989861
    25  H    3.810794   4.014004   3.906881   4.894624   5.817997
    26  C    3.302767   3.517065   2.796897   4.601439   5.252392
    27  H    4.322267   4.165790   3.829459   5.667594   6.308594
    28  H    3.007979   2.954037   2.314257   4.397703   4.845220
                   11         12         13         14         15
    11  H    0.000000
    12  C    3.859452   0.000000
    13  H    4.941818   1.083960   0.000000
    14  C    3.444787   1.349236   2.105711   0.000000
    15  H    4.353828   2.112030   2.425838   1.083590   0.000000
    16  C    2.169670   2.491530   3.474783   1.501632   2.227900
    17  H    2.422154   3.093680   4.023951   2.129789   2.659848
    18  H    2.582099   3.299649   4.182704   2.138157   2.485014
    19  C    2.647693   4.645812   5.587032   4.627603   5.544781
    20  H    2.364896   4.944483   5.944090   4.622698   5.443787
    21  C    3.523227   5.702525   6.605470   5.864154   6.841639
    22  H    3.895554   6.605470   7.556164   6.638007   7.594235
    23  C    4.253656   4.060156   4.641887   4.675891   5.571233
    24  H    4.700873   3.523227   3.895554   4.374002   5.206014
    25  H    4.989861   4.831883   5.343918   5.337696   6.128748
    26  C    4.649891   5.033043   5.635028   5.742325   6.732429
    27  H    5.738105   5.823719   6.292597   6.627339   7.574826
    28  H    4.584070   4.745521   5.309148   5.589703   6.615582
                   16         17         18         19         20
    16  C    0.000000
    17  H    1.097362   0.000000
    18  H    1.092607   1.740790   0.000000
    19  C    3.776100   3.367102   4.606967   0.000000
    20  H    3.517065   2.954037   4.165790   1.082654   0.000000
    21  C    5.033043   4.745521   5.823719   1.428498   2.171458
    22  H    5.635028   5.309148   6.292597   2.167408   2.473729
    23  C    4.601439   4.397703   5.667594   2.461337   3.446960
    24  H    4.649891   4.584070   5.738105   3.376923   4.284870
    25  H    5.252392   4.845220   6.308594   2.812175   3.703520
    26  C    5.528082   5.468736   6.529169   2.895807   3.976662
    27  H    6.529169   6.430013   7.555658   3.832052   4.908556
    28  H    5.468736   5.626976   6.430013   3.443666   4.473123
                   21         22         23         24         25
    21  C    0.000000
    22  H    1.083960   0.000000
    23  C    2.829782   3.903053   0.000000
    24  H    3.859452   4.941818   1.090251   0.000000
    25  H    3.136375   4.112772   1.095596   1.753548   0.000000
    26  C    2.491530   3.474783   1.529622   2.169670   2.148668
    27  H    3.299649   4.182704   2.157661   2.582099   2.381211
    28  H    3.093680   4.023951   2.173654   2.422154   3.046279
                   26         27         28
    26  C    0.000000
    27  H    1.092607   0.000000
    28  H    1.097362   1.740790   0.000000
 Symmetry turned off by external request.
 Stoichiometry    C12H16
 Framework group  CI[X(C12H16)]
 Deg. of freedom    39
 Full point group                 CI      NOp   2
 Rotational constants (GHZ):           1.9460863           0.6363098           0.5523634
 Leave Link  202 at Tue Aug  4 13:47:24 2020, MaxMem=  6442450944 cpu:               0.3 elap:               0.1
 (Enter /scratch/scicomp/CentOS/7.3.1611/Haswell/software/Gaussian/g16/l301.exe)
 Standard basis: def2TZVP (6D, 10F)
 Ernie: Thresh=  0.10000D-02 Tol=  0.10000D-05 Strict=F.
   528 basis functions,   740 primitive gaussians,   528 cartesian basis functions
    44 alpha electrons       44 beta electrons
       nuclear repulsion energy       691.6297447560 Hartrees.
 IExCor= 4639 DFT=T Ex+Corr=wB97XD ExCW=0 ScaHFX=  1.000000
 ScaDFX=  1.000000  1.000000  1.000000  1.000000 ScalE2=  1.000000  1.000000
 IRadAn=      5 IRanWt=     -1 IRanGd=            0 ICorTp=0 IEmpDi=121
 HFx  wShort=  0.000000 wLong=  0.200000 cFull=  0.222036 cShort=  0.000000 cLong=  0.777964
 DFx  wShort=  0.000000 wLong=  0.200000 cFull=  0.000000 cShort=  0.000000 cLong=  1.000000
 NAtoms=   28 NActive=   28 NUniq=   28 SFac= 1.00D+00 NAtFMM=   60 NAOKFM=F Big=F
 Integral buffers will be    131072 words long.
 Raffenetti 2 integral format.
 Two-electron integral symmetry is turned off.
 R6Disp:  Grimme-D2 Dispersion energy=       -0.0229207125 Hartrees.
 Nuclear repulsion after empirical dispersion term =      691.6068240435 Hartrees.
 Using the following non-standard input for PCM:
 qrep pcmdoc geomview  nodis nocav g03defaults tsare=0.075
 Warning! Using old PCM defaults because the g03defaults keyword was found.
 These settings can be overridden by following keywords.
 nsfe=28
 NVESolv=36  SolvMW=84.1595   Rsolv=2.815
 eps=2.0165 RhoS=0.778099999999998
 --- end of non-standard input.
 Reading user-defined spheres from input:
 ISph  on   Nord    Re0     Alpha      Xe            Ye            Ze
 --- end of user-defined spheres data.
 ------------------------------------------------------------------------------
 Polarizable Continuum Model (PCM)
 =================================
 Model                : PCM.
 Atomic radii         : UA0 (Simple United Atom Topological Model).
 Polarization charges : Total charges.
 Charge compensation  : None.
 Solution method      : On-the-fly selection.
 Cavity type          : SES (Solvent Excluding Surface) (Alpha=1.000).
 Cavity algorithm     : GePol (RMin=0.200 OFac=0.890).
                        User-defined sphere list used, NSphG=   28.
                        Tesserae with average area of 0.075 Ang**2.
                        Smoothing algorithm: None.
                        Polarization charges: point-like.
                        Self-potential: constant (ISelfS= 1).
                        Self-field    : global E.n sum rule (ISelfD= 3).
 Solvent              : CycloHexane, Eps=   2.016500 Eps(inf)=   2.035188
                        RSolv=   2.815000 Ang.
 ------------------------------------------------------------------------------
 GePol: Number of generator spheres                  =      28
 GePol: Total number of spheres                      =     168
 GePol: Number of exposed spheres                    =     127 ( 75.60%)
 GePol: Number of tesserae                           =    4632
 GePol: Average area of tesserae                     =       0.05 Ang**2
 GePol: Minimum area of tessera                      =   0.10D-02 Ang**2
 GePol: Maximum area of tessera                      =    0.12631 Ang**2
 GePol: Number of small tesserae                     =       0
 GePol: Fraction of small tesserae (<1% of avg)      =       0.00%
 GePol: Total count of vertices                      =   16369
 GePol: Maximum number of vertices in a tessera      =       7
 GePol: Cavity surface area                          =    218.631 Ang**2
 GePol: Cavity volume                                =    245.839 Ang**3
 Leave Link  301 at Tue Aug  4 13:47:24 2020, MaxMem=  6442450944 cpu:               8.7 elap:               0.4
 (Enter /scratch/scicomp/CentOS/7.3.1611/Haswell/software/Gaussian/g16/l302.exe)
 NPDir=0 NMtPBC=     1 NCelOv=     1 NCel=       1 NClECP=     1 NCelD=      1
         NCelK=      1 NCelE2=     1 NClLst=     1 CellRange=     0.0.
 One-electron integrals computed using PRISM.
   1 Symmetry operations used in ECPInt.
 ECPInt:  NShTT=   19306 NPrTT=   56928 LenC2=   18526 LenP2D=   42291.
 LDataN:  DoStor=T MaxTD1= 6 Len=  172
 NBasis=   528 RedAO= T EigKep=  2.50D-05  NBF=   528
 NBsUse=   528 1.00D-06 EigRej= -1.00D+00 NBFU=   528
 Precomputing XC quadrature grid using
 IXCGrd= 4 IRadAn=           5 IRanWt=          -1 IRanGd=           0 AccXCQ= 0.00D+00.
 Generated NRdTot=       0 NPtTot=           0 NUsed=           0 NTot=          32
 NSgBfM=   526   526   526   526   526 MxSgAt=    28 MxSgA2=    28.
 Leave Link  302 at Tue Aug  4 13:47:25 2020, MaxMem=  6442450944 cpu:              14.5 elap:               0.7
 (Enter /scratch/scicomp/CentOS/7.3.1611/Haswell/software/Gaussian/g16/l303.exe)
 DipDrv:  MaxL=1.
 Leave Link  303 at Tue Aug  4 13:47:25 2020, MaxMem=  6442450944 cpu:               1.8 elap:               0.1
 (Enter /scratch/scicomp/CentOS/7.3.1611/Haswell/software/Gaussian/g16/l401.exe)
 ExpMin= 9.52D-02 ExpMax= 1.36D+04 ExpMxC= 4.63D+02 IAcc=3 IRadAn=         5 AccDes= 0.00D+00
 Harris functional with IExCor= 4639 and IRadAn=       5 diagonalized for initial guess.
 HarFok:  IExCor= 4639 AccDes= 0.00D+00 IRadAn=         5 IDoV= 1 UseB2=F ITyADJ=14
 ICtDFT=  3500011 ScaDFX=  1.000000  1.000000  1.000000  1.000000
 FoFCou: FMM=F IPFlag=           0 FMFlag=      100000 FMFlg1=           0
         NFxFlg=           0 DoJE=T BraDBF=F KetDBF=T FulRan=T
         wScrn=  0.000000 ICntrl=       500 IOpCl=  0 I1Cent=   200000004 NGrid=           0
         NMat0=    1 NMatS0=      1 NMatT0=    0 NMatD0=    1 NMtDS0=    0 NMtDT0=    0
 Symmetry not used in FoFCou.
 Harris En= -444.618867750289    
 JPrj=0 DoOrth=F DoCkMO=T.
 Mixing orbitals, IMix= 1 IMixAn=  0 NRI=1 NE=   44 Coef=  7.07106781D-01  7.07106781D-01
 Mixing orbitals, IMix= 1 IMixAn=  0 NRI=1 NE=   44 Coef= -7.07106781D-01  7.07106781D-01
 Initial guess <Sx>= 0.0000 <Sy>= 0.0000 <Sz>= 0.0000 <S**2>= 1.0000 S= 0.6180
 Leave Link  401 at Tue Aug  4 13:47:28 2020, MaxMem=  6442450944 cpu:              51.5 elap:               2.3
 (Enter /scratch/scicomp/CentOS/7.3.1611/Haswell/software/Gaussian/g16/l502.exe)
 Two-electron integral symmetry not used.
 UHF open shell SCF:
 Using DIIS extrapolation, IDIIS=  1040.
 NGot=  6442450944 LenX=  6441877030 LenY=  6441597718
 Requested convergence on RMS density matrix=1.00D-08 within 128 cycles.
 Requested convergence on MAX density matrix=1.00D-06.
 Requested convergence on             energy=1.00D-06.
 No special actions if energy rises.
 Fock matrices will be formed incrementally for  20 cycles.

 Cycle   1  Pass 1  IDiag  1:
 FoFJK:  IHMeth= 1 ICntrl=       0 DoSepK=T KAlg= 0 I1Cent=           0 FoldK=F
 IRaf=         1 NMat=       1 IRICut=       1 DoRegI=T DoRafI=F ISym2E= 0 IDoP0=0 IntGTp=1.
 FoFCou: FMM=F IPFlag=           0 FMFlag=      100000 FMFlg1=           0
         NFxFlg=           0 DoJE=T BraDBF=F KetDBF=F FulRan=T
         wScrn=  0.000000 ICntrl=       500 IOpCl=  0 I1Cent=           0 NGrid=           0
         NMat0=    1 NMatS0=      1 NMatT0=    0 NMatD0=    1 NMtDS0=    0 NMtDT0=    0
 Symmetry not used in FoFCou.
 Inv3:  Mode=1 IEnd=    64366272.
 Iteration    1 A*A^-1 deviation from unit magnitude is 3.55D-15 for   3256.
 Iteration    1 A*A^-1 deviation from orthogonality  is 2.14D-15 for   1109    140.
 Iteration    1 A^-1*A deviation from unit magnitude is 3.33D-15 for   3256.
 Iteration    1 A^-1*A deviation from orthogonality  is 1.81D-15 for   1109    140.
 E= -466.634396524164    
 DIIS: error= 5.76D-02 at cycle   1 NSaved=   1.
 NSaved= 1 IEnMin= 1 EnMin= -466.634396524164     IErMin= 1 ErrMin= 5.76D-02
 ErrMax= 5.76D-02  0.00D+00 EMaxC= 1.00D-01 BMatC= 4.10D+00 BMatP= 4.10D+00
 IDIUse=3 WtCom= 4.24D-01 WtEn= 5.76D-01
 Coeff-Com:  0.100D+01
 Coeff-En:   0.100D+01
 Coeff:      0.100D+01
 Gap=     0.211 Goal=   None    Shift=    0.000
 Gap=     0.211 Goal=   None    Shift=    0.000
 GapD=    0.211 DampG=1.000 DampE=0.500 DampFc=0.5000 IDamp=-1.
 Damping current iteration by 5.00D-01
 RMSDP=1.50D-03 MaxDP=9.22D-02              OVMax= 1.64D-01

 Cycle   2  Pass 1  IDiag  1:
 RMSU=  7.32D-04    CP:  9.75D-01
 E= -466.712817970896     Delta-E=       -0.078421446732 Rises=F Damp=T
 DIIS: error= 2.73D-02 at cycle   2 NSaved=   2.
 NSaved= 2 IEnMin= 2 EnMin= -466.712817970896     IErMin= 2 ErrMin= 2.73D-02
 ErrMax= 2.73D-02  0.00D+00 EMaxC= 1.00D-01 BMatC= 9.23D-01 BMatP= 4.10D+00
 IDIUse=3 WtCom= 7.27D-01 WtEn= 2.73D-01
 Coeff-Com: -0.866D+00 0.187D+01
 Coeff-En:   0.000D+00 0.100D+01
 Coeff:     -0.629D+00 0.163D+01
 Gap=     0.233 Goal=   None    Shift=    0.000
 Gap=     0.233 Goal=   None    Shift=    0.000
 RMSDP=9.62D-04 MaxDP=4.86D-02 DE=-7.84D-02 OVMax= 7.23D-02

 Cycle   3  Pass 1  IDiag  1:
 RMSU=  4.82D-04    CP:  9.43D-01  2.10D+00
 E= -466.796727709193     Delta-E=       -0.083909738296 Rises=F Damp=F
 DIIS: error= 4.10D-03 at cycle   3 NSaved=   3.
 NSaved= 3 IEnMin= 3 EnMin= -466.796727709193     IErMin= 3 ErrMin= 4.10D-03
 ErrMax= 4.10D-03  0.00D+00 EMaxC= 1.00D-01 BMatC= 1.77D-02 BMatP= 9.23D-01
 IDIUse=3 WtCom= 9.59D-01 WtEn= 4.10D-02
 Coeff-Com: -0.308D+00 0.664D+00 0.644D+00
 Coeff-En:   0.000D+00 0.000D+00 0.100D+01
 Coeff:     -0.295D+00 0.637D+00 0.658D+00
 Gap=     0.239 Goal=   None    Shift=    0.000
 Gap=     0.239 Goal=   None    Shift=    0.000
 RMSDP=1.51D-04 MaxDP=8.36D-03 DE=-8.39D-02 OVMax= 3.76D-02

 Cycle   4  Pass 1  IDiag  1:
 RMSU=  1.35D-04    CP:  9.38D-01  2.18D+00  9.63D-01
 E= -466.802621665217     Delta-E=       -0.005893956024 Rises=F Damp=F
 DIIS: error= 2.84D-03 at cycle   4 NSaved=   4.
 NSaved= 4 IEnMin= 4 EnMin= -466.802621665217     IErMin= 4 ErrMin= 2.84D-03
 ErrMax= 2.84D-03  0.00D+00 EMaxC= 1.00D-01 BMatC= 8.36D-04 BMatP= 1.77D-02
 IDIUse=3 WtCom= 9.72D-01 WtEn= 2.84D-02
 Coeff-Com:  0.112D+00-0.241D+00-0.109D+00 0.124D+01
 Coeff-En:   0.000D+00 0.000D+00 0.000D+00 0.100D+01
 Coeff:      0.109D+00-0.234D+00-0.106D+00 0.123D+01
 Gap=     0.243 Goal=   None    Shift=    0.000
 Gap=     0.243 Goal=   None    Shift=    0.000
 RMSDP=1.49D-04 MaxDP=7.81D-03 DE=-5.89D-03 OVMax= 4.89D-02

 Cycle   5  Pass 1  IDiag  1:
 RMSU=  5.92D-05    CP:  9.34D-01  2.23D+00  1.15D+00  1.69D+00
 E= -466.804492113720     Delta-E=       -0.001870448504 Rises=F Damp=F
 DIIS: error= 1.50D-03 at cycle   5 NSaved=   5.
 NSaved= 5 IEnMin= 5 EnMin= -466.804492113720     IErMin= 5 ErrMin= 1.50D-03
 ErrMax= 1.50D-03  0.00D+00 EMaxC= 1.00D-01 BMatC= 2.64D-04 BMatP= 8.36D-04
 IDIUse=3 WtCom= 9.85D-01 WtEn= 1.50D-02
 Coeff-Com:  0.495D-01-0.107D+00-0.845D-01 0.207D+00 0.935D+00
 Coeff-En:   0.000D+00 0.000D+00 0.000D+00 0.000D+00 0.100D+01
 Coeff:      0.487D-01-0.105D+00-0.833D-01 0.204D+00 0.936D+00
 Gap=     0.243 Goal=   None    Shift=    0.000
 Gap=     0.243 Goal=   None    Shift=    0.000
 RMSDP=7.15D-05 MaxDP=4.78D-03 DE=-1.87D-03 OVMax= 2.51D-02

 Cycle   6  Pass 1  IDiag  1:
 RMSU=  2.44D-05    CP:  9.33D-01  2.24D+00  1.20D+00  2.07D+00  1.62D+00
 E= -466.805065858769     Delta-E=       -0.000573745049 Rises=F Damp=F
 DIIS: error= 9.81D-04 at cycle   6 NSaved=   6.
 NSaved= 6 IEnMin= 6 EnMin= -466.805065858769     IErMin= 6 ErrMin= 9.81D-04
 ErrMax= 9.81D-04  0.00D+00 EMaxC= 1.00D-01 BMatC= 1.43D-04 BMatP= 2.64D-04
 IDIUse=3 WtCom= 9.90D-01 WtEn= 9.81D-03
 Coeff-Com: -0.383D-01 0.823D-01 0.315D-01-0.466D+00 0.374D+00 0.102D+01
 Coeff-En:   0.000D+00 0.000D+00 0.000D+00 0.000D+00 0.000D+00 0.100D+01
 Coeff:     -0.379D-01 0.815D-01 0.312D-01-0.461D+00 0.370D+00 0.102D+01
 Gap=     0.243 Goal=   None    Shift=    0.000
 Gap=     0.243 Goal=   None    Shift=    0.000
 RMSDP=6.45D-05 MaxDP=3.82D-03 DE=-5.74D-04 OVMax= 2.44D-02

 Cycle   7  Pass 1  IDiag  1:
 RMSU=  1.65D-05    CP:  9.32D-01  2.24D+00  1.23D+00  2.37D+00  2.32D+00
                    CP:  1.54D+00
 E= -466.805429592247     Delta-E=       -0.000363733478 Rises=F Damp=F
 DIIS: error= 5.81D-04 at cycle   7 NSaved=   7.
 NSaved= 7 IEnMin= 7 EnMin= -466.805429592247     IErMin= 7 ErrMin= 5.81D-04
 ErrMax= 5.81D-04  0.00D+00 EMaxC= 1.00D-01 BMatC= 4.39D-05 BMatP= 1.43D-04
 IDIUse=3 WtCom= 9.94D-01 WtEn= 5.81D-03
 Coeff-Com: -0.129D-01 0.280D-01 0.263D-01 0.124D-01-0.282D+00-0.165D+00
 Coeff-Com:  0.139D+01
 Coeff-En:   0.000D+00 0.000D+00 0.000D+00 0.000D+00 0.000D+00 0.000D+00
 Coeff-En:   0.100D+01
 Coeff:     -0.128D-01 0.279D-01 0.261D-01 0.123D-01-0.281D+00-0.164D+00
 Coeff:      0.139D+01
 Gap=     0.241 Goal=   None    Shift=    0.000
 Gap=     0.241 Goal=   None    Shift=    0.000
 RMSDP=4.43D-05 MaxDP=2.40D-03 DE=-3.64D-04 OVMax= 1.71D-02

 Cycle   8  Pass 1  IDiag  1:
 RMSU=  8.91D-06    CP:  9.31D-01  2.24D+00  1.24D+00  2.55D+00  2.79D+00
                    CP:  2.21D+00  1.90D+00
 E= -466.805599905337     Delta-E=       -0.000170313089 Rises=F Damp=F
 DIIS: error= 4.05D-04 at cycle   8 NSaved=   8.
 NSaved= 8 IEnMin= 8 EnMin= -466.805599905337     IErMin= 8 ErrMin= 4.05D-04
 ErrMax= 4.05D-04  0.00D+00 EMaxC= 1.00D-01 BMatC= 2.10D-05 BMatP= 4.39D-05
 IDIUse=3 WtCom= 9.96D-01 WtEn= 4.05D-03
 Coeff-Com:  0.166D-01-0.358D-01-0.103D-01 0.241D+00-0.153D+00-0.545D+00
 Coeff-Com:  0.633D-01 0.142D+01
 Coeff-En:   0.000D+00 0.000D+00 0.000D+00 0.000D+00 0.000D+00 0.000D+00
 Coeff-En:   0.000D+00 0.100D+01
 Coeff:      0.165D-01-0.356D-01-0.103D-01 0.240D+00-0.152D+00-0.543D+00
 Coeff:      0.631D-01 0.142D+01
 Gap=     0.240 Goal=   None    Shift=    0.000
 Gap=     0.240 Goal=   None    Shift=    0.000
 RMSDP=3.49D-05 MaxDP=1.44D-03 DE=-1.70D-04 OVMax= 1.45D-02

 Cycle   9  Pass 1  IDiag  1:
 RMSU=  9.36D-06    CP:  9.30D-01  2.24D+00  1.25D+00  2.68D+00  3.00D+00
                    CP:  2.67D+00  2.85D+00  2.09D+00
 E= -466.805695757080     Delta-E=       -0.000095851743 Rises=F Damp=F
 DIIS: error= 2.77D-04 at cycle   9 NSaved=   9.
 NSaved= 9 IEnMin= 9 EnMin= -466.805695757080     IErMin= 9 ErrMin= 2.77D-04
 ErrMax= 2.77D-04  0.00D+00 EMaxC= 1.00D-01 BMatC= 8.67D-06 BMatP= 2.10D-05
 IDIUse=3 WtCom= 9.97D-01 WtEn= 2.77D-03
 Coeff-Com:  0.103D-01-0.223D-01-0.142D-01 0.627D-01 0.103D+00-0.817D-01
 Coeff-Com: -0.621D+00 0.295D+00 0.127D+01
 Coeff-En:   0.000D+00 0.000D+00 0.000D+00 0.000D+00 0.000D+00 0.000D+00
 Coeff-En:   0.000D+00 0.000D+00 0.100D+01
 Coeff:      0.103D-01-0.222D-01-0.142D-01 0.625D-01 0.103D+00-0.815D-01
 Coeff:     -0.619D+00 0.294D+00 0.127D+01
 Gap=     0.239 Goal=   None    Shift=    0.000
 Gap=     0.239 Goal=   None    Shift=    0.000
 RMSDP=2.67D-05 MaxDP=1.06D-03 DE=-9.59D-05 OVMax= 1.14D-02

 Cycle  10  Pass 1  IDiag  1:
 RMSU=  9.64D-06    CP:  9.30D-01  2.24D+00  1.26D+00  2.78D+00  3.00D+00
                    CP:  2.99D+00  3.00D+00  3.00D+00  2.49D+00
 E= -466.805740947607     Delta-E=       -0.000045190527 Rises=F Damp=F
 DIIS: error= 1.66D-04 at cycle  10 NSaved=  10.
 NSaved=10 IEnMin=10 EnMin= -466.805740947607     IErMin=10 ErrMin= 1.66D-04
 ErrMax= 1.66D-04  0.00D+00 EMaxC= 1.00D-01 BMatC= 2.70D-06 BMatP= 8.67D-06
 IDIUse=3 WtCom= 9.98D-01 WtEn= 1.66D-03
 Coeff-Com: -0.780D-02 0.169D-01 0.531D-02-0.108D+00 0.776D-01 0.253D+00
 Coeff-Com: -0.712D-01-0.721D+00-0.409D-01 0.160D+01
 Coeff-En:   0.000D+00 0.000D+00 0.000D+00 0.000D+00 0.000D+00 0.000D+00
 Coeff-En:   0.000D+00 0.000D+00 0.000D+00 0.100D+01
 Coeff:     -0.779D-02 0.168D-01 0.530D-02-0.108D+00 0.775D-01 0.252D+00
 Coeff:     -0.710D-01-0.720D+00-0.408D-01 0.160D+01
 Gap=     0.238 Goal=   None    Shift=    0.000
 Gap=     0.238 Goal=   None    Shift=    0.000
 RMSDP=2.52D-05 MaxDP=1.05D-03 DE=-4.52D-05 OVMax= 1.09D-02

 Cycle  11  Pass 1  IDiag  1:
 RMSU=  1.37D-05    CP:  9.30D-01  2.25D+00  1.27D+00  2.88D+00  3.00D+00
                    CP:  3.00D+00  3.00D+00  3.00D+00  3.00D+00  2.09D+00
 E= -466.805760905742     Delta-E=       -0.000019958135 Rises=F Damp=F
 DIIS: error= 5.01D-05 at cycle  11 NSaved=  11.
 NSaved=11 IEnMin=11 EnMin= -466.805760905742     IErMin=11 ErrMin= 5.01D-05
 ErrMax= 5.01D-05  0.00D+00 EMaxC= 1.00D-01 BMatC= 4.42D-07 BMatP= 2.70D-06
 IDIUse=1 WtCom= 1.00D+00 WtEn= 0.00D+00
 Coeff-Com: -0.201D-02 0.434D-02 0.244D-02-0.160D-01-0.833D-02 0.354D-01
 Coeff-Com:  0.755D-01-0.114D+00-0.200D+00 0.118D+00 0.110D+01
 Coeff:     -0.201D-02 0.434D-02 0.244D-02-0.160D-01-0.833D-02 0.354D-01
 Coeff:      0.755D-01-0.114D+00-0.200D+00 0.118D+00 0.110D+01
 Gap=     0.237 Goal=   None    Shift=    0.000
 Gap=     0.237 Goal=   None    Shift=    0.000
 RMSDP=7.16D-06 MaxDP=3.11D-04 DE=-2.00D-05 OVMax= 3.02D-03

 Cycle  12  Pass 1  IDiag  1:
 RMSU=  1.70D-06    CP:  9.29D-01  2.25D+00  1.27D+00  2.91D+00  3.00D+00
                    CP:  3.00D+00  3.00D+00  3.00D+00  3.00D+00  2.39D+00
                    CP:  1.36D+00
 E= -466.805762728729     Delta-E=       -0.000001822988 Rises=F Damp=F
 DIIS: error= 1.65D-05 at cycle  12 NSaved=  12.
 NSaved=12 IEnMin=12 EnMin= -466.805762728729     IErMin=12 ErrMin= 1.65D-05
 ErrMax= 1.65D-05  0.00D+00 EMaxC= 1.00D-01 BMatC= 1.71D-07 BMatP= 4.42D-07
 IDIUse=1 WtCom= 1.00D+00 WtEn= 0.00D+00
 Coeff-Com:  0.199D-02-0.430D-02-0.871D-03 0.329D-01-0.314D-01-0.763D-01
 Coeff-Com:  0.524D-01 0.213D+00-0.666D-01-0.542D+00 0.519D+00 0.902D+00
 Coeff:      0.199D-02-0.430D-02-0.871D-03 0.329D-01-0.314D-01-0.763D-01
 Coeff:      0.524D-01 0.213D+00-0.666D-01-0.542D+00 0.519D+00 0.902D+00
 Gap=     0.237 Goal=   None    Shift=    0.000
 Gap=     0.237 Goal=   None    Shift=    0.000
 RMSDP=3.43D-06 MaxDP=1.66D-04 DE=-1.82D-06 OVMax= 1.40D-03

 Cycle  13  Pass 1  IDiag  1:
 RMSU=  5.48D-07    CP:  9.29D-01  2.25D+00  1.27D+00  2.92D+00  3.00D+00
                    CP:  3.00D+00  3.00D+00  3.00D+00  3.00D+00  2.53D+00
                    CP:  1.52D+00  1.54D+00
 E= -466.805763019260     Delta-E=       -0.000000290530 Rises=F Damp=F
 DIIS: error= 4.14D-06 at cycle  13 NSaved=  13.
 NSaved=13 IEnMin=13 EnMin= -466.805763019260     IErMin=13 ErrMin= 4.14D-06
 ErrMax= 4.14D-06  0.00D+00 EMaxC= 1.00D-01 BMatC= 1.35D-08 BMatP= 1.71D-07
 IDIUse=1 WtCom= 1.00D+00 WtEn= 0.00D+00
 Coeff-Com:  0.198D-03-0.423D-03-0.250D-03 0.125D-02 0.167D-02-0.329D-02
 Coeff-Com: -0.117D-01 0.133D-01 0.321D-01-0.570D-02-0.149D+00 0.932D-02
 Coeff-Com:  0.111D+01
 Coeff:      0.198D-03-0.423D-03-0.250D-03 0.125D-02 0.167D-02-0.329D-02
 Coeff:     -0.117D-01 0.133D-01 0.321D-01-0.570D-02-0.149D+00 0.932D-02
 Coeff:      0.111D+01
 Gap=     0.237 Goal=   None    Shift=    0.000
 Gap=     0.237 Goal=   None    Shift=    0.000
 RMSDP=3.09D-07 MaxDP=1.74D-05 DE=-2.91D-07 OVMax= 6.25D-05

 Cycle  14  Pass 1  IDiag  1:
 RMSU=  2.53D-07    CP:  9.29D-01  2.25D+00  1.27D+00  2.92D+00  3.00D+00
                    CP:  3.00D+00  3.00D+00  3.00D+00  3.00D+00  2.53D+00
                    CP:  1.52D+00  1.60D+00  1.24D+00
 E= -466.805763033715     Delta-E=       -0.000000014455 Rises=F Damp=F
 DIIS: error= 1.76D-06 at cycle  14 NSaved=  14.
 NSaved=14 IEnMin=14 EnMin= -466.805763033715     IErMin=14 ErrMin= 1.76D-06
 ErrMax= 1.76D-06  0.00D+00 EMaxC= 1.00D-01 BMatC= 4.03D-09 BMatP= 1.35D-08
 IDIUse=1 WtCom= 1.00D+00 WtEn= 0.00D+00
 Coeff-Com: -0.375D-03 0.812D-03 0.119D-03-0.672D-02 0.719D-02 0.153D-01
 Coeff-Com: -0.154D-01-0.411D-01 0.242D-01 0.113D+00-0.150D+00-0.180D+00
 Coeff-Com:  0.352D+00 0.881D+00
 Coeff:     -0.375D-03 0.812D-03 0.119D-03-0.672D-02 0.719D-02 0.153D-01
 Coeff:     -0.154D-01-0.411D-01 0.242D-01 0.113D+00-0.150D+00-0.180D+00
 Coeff:      0.352D+00 0.881D+00
 Gap=     0.237 Goal=   None    Shift=    0.000
 Gap=     0.237 Goal=   None    Shift=    0.000
 RMSDP=1.48D-07 MaxDP=5.40D-06 DE=-1.45D-08 OVMax= 2.45D-05

 Cycle  15  Pass 1  IDiag  1:
 RMSU=  8.24D-08    CP:  9.29D-01  2.25D+00  1.27D+00  2.92D+00  3.00D+00
                    CP:  3.00D+00  3.00D+00  3.00D+00  3.00D+00  2.54D+00
                    CP:  1.52D+00  1.59D+00  1.34D+00  1.41D+00
 E= -466.805763037041     Delta-E=       -0.000000003326 Rises=F Damp=F
 DIIS: error= 1.05D-06 at cycle  15 NSaved=  15.
 NSaved=15 IEnMin=15 EnMin= -466.805763037041     IErMin=15 ErrMin= 1.05D-06
 ErrMax= 1.05D-06  0.00D+00 EMaxC= 1.00D-01 BMatC= 6.40D-10 BMatP= 4.03D-09
 IDIUse=1 WtCom= 1.00D+00 WtEn= 0.00D+00
 Coeff-Com: -0.106D-03 0.228D-03 0.563D-04-0.154D-02 0.115D-02 0.375D-02
 Coeff-Com: -0.101D-02-0.109D-01-0.211D-02 0.240D-01-0.178D-02-0.406D-01
 Coeff-Com: -0.150D+00 0.144D+00 0.104D+01
 Coeff:     -0.106D-03 0.228D-03 0.563D-04-0.154D-02 0.115D-02 0.375D-02
 Coeff:     -0.101D-02-0.109D-01-0.211D-02 0.240D-01-0.178D-02-0.406D-01
 Coeff:     -0.150D+00 0.144D+00 0.104D+01
 Gap=     0.237 Goal=   None    Shift=    0.000
 Gap=     0.237 Goal=   None    Shift=    0.000
 RMSDP=1.15D-07 MaxDP=5.27D-06 DE=-3.33D-09 OVMax= 4.08D-05

 Cycle  16  Pass 1  IDiag  1:
 RMSU=  4.27D-08    CP:  9.29D-01  2.25D+00  1.27D+00  2.92D+00  3.00D+00
                    CP:  3.00D+00  3.00D+00  3.00D+00  3.00D+00  2.54D+00
                    CP:  1.53D+00  1.58D+00  1.37D+00  1.58D+00  1.50D+00
 E= -466.805763038157     Delta-E=       -0.000000001116 Rises=F Damp=F
 DIIS: error= 6.28D-07 at cycle  16 NSaved=  16.
 NSaved=16 IEnMin=16 EnMin= -466.805763038157     IErMin=16 ErrMin= 6.28D-07
 ErrMax= 6.28D-07  0.00D+00 EMaxC= 1.00D-01 BMatC= 1.39D-10 BMatP= 6.40D-10
 IDIUse=1 WtCom= 1.00D+00 WtEn= 0.00D+00
 Coeff-Com:  0.617D-04-0.134D-03-0.250D-04 0.106D-02-0.103D-02-0.253D-02
 Coeff-Com:  0.231D-02 0.666D-02-0.359D-02-0.179D-01 0.214D-01 0.292D-01
 Coeff-Com: -0.229D-01-0.180D+00-0.215D+00 0.138D+01
 Coeff:      0.617D-04-0.134D-03-0.250D-04 0.106D-02-0.103D-02-0.253D-02
 Coeff:      0.231D-02 0.666D-02-0.359D-02-0.179D-01 0.214D-01 0.292D-01
 Coeff:     -0.229D-01-0.180D+00-0.215D+00 0.138D+01
 Gap=     0.237 Goal=   None    Shift=    0.000
 Gap=     0.237 Goal=   None    Shift=    0.000
 RMSDP=8.09D-08 MaxDP=4.06D-06 DE=-1.12D-09 OVMax= 2.63D-05

 Cycle  17  Pass 1  IDiag  1:
 RMSU=  2.14D-08    CP:  9.29D-01  2.25D+00  1.27D+00  2.92D+00  3.00D+00
                    CP:  3.00D+00  3.00D+00  3.00D+00  3.00D+00  2.54D+00
                    CP:  1.53D+00  1.58D+00  1.37D+00  1.60D+00  1.86D+00
                    CP:  1.90D+00
 E= -466.805763038506     Delta-E=       -0.000000000349 Rises=F Damp=F
 DIIS: error= 3.12D-07 at cycle  17 NSaved=  17.
 NSaved=17 IEnMin=17 EnMin= -466.805763038506     IErMin=17 ErrMin= 3.12D-07
 ErrMax= 3.12D-07  0.00D+00 EMaxC= 1.00D-01 BMatC= 3.18D-11 BMatP= 1.39D-10
 IDIUse=1 WtCom= 1.00D+00 WtEn= 0.00D+00
 Coeff-Com:  0.164D-04-0.349D-04-0.865D-05 0.199D-03-0.122D-03-0.581D-03
 Coeff-Com:  0.210D-04 0.150D-02 0.102D-02-0.295D-02-0.196D-02 0.598D-02
 Coeff-Com:  0.446D-01-0.350D-01-0.276D+00 0.354D-01 0.123D+01
 Coeff:      0.164D-04-0.349D-04-0.865D-05 0.199D-03-0.122D-03-0.581D-03
 Coeff:      0.210D-04 0.150D-02 0.102D-02-0.295D-02-0.196D-02 0.598D-02
 Coeff:      0.446D-01-0.350D-01-0.276D+00 0.354D-01 0.123D+01
 Gap=     0.237 Goal=   None    Shift=    0.000
 Gap=     0.237 Goal=   None    Shift=    0.000
 RMSDP=3.48D-08 MaxDP=1.80D-06 DE=-3.49D-10 OVMax= 9.30D-06

 Cycle  18  Pass 1  IDiag  1:
 RMSU=  1.04D-08    CP:  9.29D-01  2.25D+00  1.27D+00  2.92D+00  3.00D+00
                    CP:  3.00D+00  3.00D+00  3.00D+00  3.00D+00  2.54D+00
                    CP:  1.53D+00  1.59D+00  1.38D+00  1.60D+00  2.02D+00
                    CP:  2.36D+00  1.63D+00
 E= -466.805763038579     Delta-E=       -0.000000000072 Rises=F Damp=F
 DIIS: error= 1.21D-07 at cycle  18 NSaved=  18.
 NSaved=18 IEnMin=18 EnMin= -466.805763038579     IErMin=18 ErrMin= 1.21D-07
 ErrMax= 1.21D-07  0.00D+00 EMaxC= 1.00D-01 BMatC= 6.58D-12 BMatP= 3.18D-11
 IDIUse=1 WtCom= 1.00D+00 WtEn= 0.00D+00
 Coeff-Com: -0.117D-04 0.254D-04 0.453D-05-0.224D-03 0.234D-03 0.510D-03
 Coeff-Com: -0.558D-03-0.140D-02 0.118D-02 0.392D-02-0.580D-02-0.589D-02
 Coeff-Com:  0.173D-01 0.318D-01-0.284D-01-0.288D+00 0.362D+00 0.913D+00
 Coeff:     -0.117D-04 0.254D-04 0.453D-05-0.224D-03 0.234D-03 0.510D-03
 Coeff:     -0.558D-03-0.140D-02 0.118D-02 0.392D-02-0.580D-02-0.589D-02
 Coeff:      0.173D-01 0.318D-01-0.284D-01-0.288D+00 0.362D+00 0.913D+00
 Gap=     0.237 Goal=   None    Shift=    0.000
 Gap=     0.237 Goal=   None    Shift=    0.000
 RMSDP=1.10D-08 MaxDP=5.28D-07 DE=-7.24D-11 OVMax= 2.77D-06

 Cycle  19  Pass 1  IDiag  1:
 RMSU=  3.81D-09    CP:  9.29D-01  2.25D+00  1.27D+00  2.92D+00  3.00D+00
                    CP:  3.00D+00  3.00D+00  3.00D+00  3.00D+00  2.54D+00
                    CP:  1.53D+00  1.59D+00  1.38D+00  1.60D+00  2.05D+00
                    CP:  2.47D+00  1.92D+00  1.40D+00
 E= -466.805763038591     Delta-E=       -0.000000000013 Rises=F Damp=F
 DIIS: error= 4.58D-08 at cycle  19 NSaved=  19.
 NSaved=19 IEnMin=19 EnMin= -466.805763038591     IErMin=19 ErrMin= 4.58D-08
 ErrMax= 4.58D-08  0.00D+00 EMaxC= 1.00D-01 BMatC= 1.15D-12 BMatP= 6.58D-12
 IDIUse=1 WtCom= 1.00D+00 WtEn= 0.00D+00
 Coeff-Com: -0.652D-05 0.141D-04 0.226D-05-0.112D-03 0.109D-03 0.286D-03
 Coeff-Com: -0.222D-03-0.766D-03 0.299D-03 0.193D-02-0.200D-02-0.321D-02
 Coeff-Com: -0.168D-03 0.173D-01 0.287D-01-0.113D+00-0.458D-01 0.330D+00
 Coeff-Com:  0.786D+00
 Coeff:     -0.652D-05 0.141D-04 0.226D-05-0.112D-03 0.109D-03 0.286D-03
 Coeff:     -0.222D-03-0.766D-03 0.299D-03 0.193D-02-0.200D-02-0.321D-02
 Coeff:     -0.168D-03 0.173D-01 0.287D-01-0.113D+00-0.458D-01 0.330D+00
 Coeff:      0.786D+00
 Gap=     0.237 Goal=   None    Shift=    0.000
 Gap=     0.237 Goal=   None    Shift=    0.000
 RMSDP=3.69D-09 MaxDP=2.10D-07 DE=-1.26D-11 OVMax= 1.06D-06

 Error on total polarization charges =  0.01116
 SCF Done:  E(UwB97XD) =  -466.805763039     A.U. after   19 cycles
            NFock= 19  Conv=0.37D-08     -V/T= 2.0058
 <Sx>= 0.0000 <Sy>= 0.0000 <Sz>= 0.0000 <S**2>= 0.5178 S= 0.3763
 <L.S>=  0.00000000000    
 KE= 4.641252352558D+02 PE=-2.464976131495D+03 EE= 8.424383091574D+02
 --------------------------------------------------------------------
 Variational PCM results
 =======================
 <psi(f)|   H    |psi(f)>                     (a.u.) =    -466.814051
 <psi(f)|H+V(f)/2|psi(f)>                     (a.u.) =    -466.815420
 Total free energy in solution:
 - with all non electrostatic terms           (a.u.) =    -466.805763
 --------------------------------------------------------------------
 (Polarized solute)-Solvent               (kcal/mol) =      -0.86
 --------------------------------------------------------------------
 Quantum repulsion energy                 (kcal/mol) =       6.06
 Total non electrostatic                  (kcal/mol) =       6.06
 --------------------------------------------------------------------
 Partition over spheres:
 Sphere  on Atom  Surface  Charge   GEl     GCav    GDR
    1               7.43   0.011   -0.05    0.00    0.00
    2               1.26   0.001   -0.00    0.00    0.00
    3               7.52  -0.010   -0.03    0.00    0.00
    4               3.10  -0.004   -0.01    0.00    0.00
    5               4.78   0.009   -0.05    0.00    0.00
    6               1.18   0.001   -0.00    0.00    0.00
    7               4.90  -0.007   -0.03    0.00    0.00
    8               3.30  -0.004   -0.01    0.00    0.00
    9               3.11   0.002    0.00    0.00    0.00
   10               6.88  -0.007   -0.01    0.00    0.00
   11               3.59  -0.003   -0.01    0.00    0.00
   12               6.70   0.011   -0.06    0.00    0.00
   13               7.50  -0.010   -0.03    0.00    0.00
   14               7.33   0.011   -0.05    0.00    0.00
   15               7.52  -0.010   -0.03    0.00    0.00
   16               3.10   0.001    0.00    0.00    0.00
   17               4.04  -0.004   -0.02    0.00    0.00
   18               7.47  -0.008   -0.03    0.00    0.00
   19               5.12   0.009   -0.05    0.00    0.00
   20               5.28  -0.007   -0.03    0.00    0.00
   21               7.00   0.011   -0.06    0.00    0.00
   22               7.52  -0.010   -0.03    0.00    0.00
   23               3.01   0.002    0.00    0.00    0.00
   24               3.84  -0.003   -0.01    0.00    0.00
   25               6.83  -0.006   -0.01    0.00    0.00
   26               3.25   0.001    0.00    0.00    0.00
   27               7.40  -0.008   -0.03    0.00    0.00
   28               4.19  -0.005   -0.02    0.00    0.00
 Added spheres:    74.49   0.022   -0.20    0.00    0.00
 --------------------------------------------------------------------
 After PCM corrections, the energy is  -466.805763039     a.u.
 --------------------------------------------------------------------
 Annihilation of the first spin contaminant:
 S**2 before annihilation     0.5178,   after     0.1260
 Leave Link  502 at Tue Aug  4 13:53:38 2020, MaxMem=  6442450944 cpu:            8806.9 elap:             370.3
 (Enter /scratch/scicomp/CentOS/7.3.1611/Haswell/software/Gaussian/g16/l601.exe)
 Copying SCF densities to generalized density rwf, IOpCl= 1 IROHF=0.

 **********************************************************************

            Population analysis using the SCF Density.

 **********************************************************************

 Alpha  occ. eigenvalues --  -10.29540 -10.29195 -10.28350 -10.28340 -10.28312
 Alpha  occ. eigenvalues --  -10.27980 -10.27958 -10.27932 -10.27891 -10.27806
 Alpha  occ. eigenvalues --  -10.27704 -10.27294  -0.94807  -0.93072  -0.84935
 Alpha  occ. eigenvalues --   -0.84290  -0.83488  -0.82446  -0.71216  -0.70225
 Alpha  occ. eigenvalues --   -0.69155  -0.67703  -0.59905  -0.59423  -0.58022
 Alpha  occ. eigenvalues --   -0.56213  -0.53190  -0.53010  -0.50768  -0.50004
 Alpha  occ. eigenvalues --   -0.49289  -0.48181  -0.47759  -0.47188  -0.46302
 Alpha  occ. eigenvalues --   -0.44564  -0.41303  -0.40906  -0.39728  -0.39472
 Alpha  occ. eigenvalues --   -0.38958  -0.37460  -0.31810  -0.23961
 Alpha virt. eigenvalues --   -0.00233   0.08818   0.11348   0.13428   0.14223
 Alpha virt. eigenvalues --    0.14717   0.15529   0.16483   0.16947   0.17329
 Alpha virt. eigenvalues --    0.17411   0.18192   0.19065   0.20041   0.21009
 Alpha virt. eigenvalues --    0.21645   0.22252   0.23503   0.24054   0.24435
 Alpha virt. eigenvalues --    0.25409   0.25970   0.27104   0.27212   0.27999
 Alpha virt. eigenvalues --    0.29293   0.29345   0.30518   0.30994   0.31174
 Alpha virt. eigenvalues --    0.31770   0.32554   0.32608   0.33368   0.34588
 Alpha virt. eigenvalues --    0.35055   0.36066   0.36728   0.37047   0.38004
 Alpha virt. eigenvalues --    0.38210   0.39419   0.41752   0.42123   0.42870
 Alpha virt. eigenvalues --    0.44128   0.44594   0.45337   0.45838   0.46268
 Alpha virt. eigenvalues --    0.47142   0.47763   0.49220   0.49243   0.49408
 Alpha virt. eigenvalues --    0.49488   0.49773   0.49956   0.50778   0.50957
 Alpha virt. eigenvalues --    0.51118   0.51679   0.52325   0.52841   0.53620
 Alpha virt. eigenvalues --    0.53719   0.54913   0.55157   0.55706   0.56535
 Alpha virt. eigenvalues --    0.57281   0.57584   0.58712   0.59476   0.59753
 Alpha virt. eigenvalues --    0.59984   0.61175   0.61427   0.63799   0.65365
 Alpha virt. eigenvalues --    0.66940   0.67792   0.68456   0.69050   0.69131
 Alpha virt. eigenvalues --    0.71308   0.72454   0.73609   0.76443   0.76541
 Alpha virt. eigenvalues --    0.78050   0.79247   0.79402   0.81951   0.82313
 Alpha virt. eigenvalues --    0.83541   0.84664   0.86169   0.87749   0.88259
 Alpha virt. eigenvalues --    0.88609   0.89860   0.93549   0.94294   0.95318
 Alpha virt. eigenvalues --    0.96307   0.97931   0.98552   0.98921   0.99819
 Alpha virt. eigenvalues --    1.02342   1.02666   1.04390   1.04764   1.06067
 Alpha virt. eigenvalues --    1.07636   1.08202   1.08284   1.10187   1.10287
 Alpha virt. eigenvalues --    1.12781   1.14373   1.15910   1.17048   1.17671
 Alpha virt. eigenvalues --    1.18742   1.18979   1.19643   1.19985   1.20095
 Alpha virt. eigenvalues --    1.21247   1.22693   1.24444   1.26100   1.26328
 Alpha virt. eigenvalues --    1.27274   1.27603   1.28344   1.29277   1.29512
 Alpha virt. eigenvalues --    1.30539   1.30871   1.33457   1.34328   1.34970
 Alpha virt. eigenvalues --    1.35342   1.35747   1.36026   1.38480   1.39536
 Alpha virt. eigenvalues --    1.39586   1.40090   1.40308   1.41999   1.42759
 Alpha virt. eigenvalues --    1.43304   1.44110   1.44430   1.44604   1.45560
 Alpha virt. eigenvalues --    1.46306   1.46620   1.47750   1.48305   1.49371
 Alpha virt. eigenvalues --    1.50889   1.53807   1.55217   1.56785   1.57863
 Alpha virt. eigenvalues --    1.59290   1.60081   1.60165   1.61558   1.63336
 Alpha virt. eigenvalues --    1.64093   1.65891   1.66086   1.67358   1.68612
 Alpha virt. eigenvalues --    1.72316   1.73652   1.75595   1.77600   1.78939
 Alpha virt. eigenvalues --    1.79203   1.81094   1.82137   1.85324   1.85690
 Alpha virt. eigenvalues --    1.88124   1.90079   1.91056   1.93313   1.94336
 Alpha virt. eigenvalues --    1.97212   1.97802   2.00937   2.02526   2.03952
 Alpha virt. eigenvalues --    2.06330   2.06802   2.08794   2.10704   2.11187
 Alpha virt. eigenvalues --    2.12824   2.16016   2.16640   2.16835   2.18350
 Alpha virt. eigenvalues --    2.19047   2.20134   2.20335   2.21427   2.24236
 Alpha virt. eigenvalues --    2.25189   2.25544   2.28440   2.30576   2.32079
 Alpha virt. eigenvalues --    2.35111   2.36808   2.38394   2.39351   2.44570
 Alpha virt. eigenvalues --    2.45414   2.47521   2.47680   2.48662   2.50036
 Alpha virt. eigenvalues --    2.50925   2.54644   2.54949   2.57273   2.57856
 Alpha virt. eigenvalues --    2.59338   2.59857   2.61710   2.62490   2.63178
 Alpha virt. eigenvalues --    2.64338   2.65040   2.67138   2.68178   2.68870
 Alpha virt. eigenvalues --    2.69526   2.72002   2.73322   2.73447   2.74269
 Alpha virt. eigenvalues --    2.74630   2.76474   2.76568   2.77762   2.77973
 Alpha virt. eigenvalues --    2.79168   2.80476   2.80688   2.82292   2.83469
 Alpha virt. eigenvalues --    2.83757   2.84213   2.84721   2.86062   2.87119
 Alpha virt. eigenvalues --    2.87204   2.88038   2.89892   2.90720   2.91059
 Alpha virt. eigenvalues --    2.92403   2.93070   2.93819   2.95220   2.96617
 Alpha virt. eigenvalues --    2.96965   2.98945   2.99604   3.01072   3.02044
 Alpha virt. eigenvalues --    3.02644   3.03587   3.05410   3.05892   3.06758
 Alpha virt. eigenvalues --    3.08181   3.08799   3.09918   3.10593   3.11483
 Alpha virt. eigenvalues --    3.12359   3.12873   3.13296   3.14527   3.14869
 Alpha virt. eigenvalues --    3.15870   3.16268   3.18228   3.19028   3.19930
 Alpha virt. eigenvalues --    3.20552   3.20924   3.21505   3.22198   3.22841
 Alpha virt. eigenvalues --    3.23575   3.24362   3.25047   3.25345   3.26692
 Alpha virt. eigenvalues --    3.26838   3.27380   3.27847   3.29902   3.30126
 Alpha virt. eigenvalues --    3.30298   3.31216   3.32235   3.32544   3.34870
 Alpha virt. eigenvalues --    3.35643   3.35970   3.36284   3.36685   3.37313
 Alpha virt. eigenvalues --    3.38699   3.39864   3.40567   3.40657   3.42214
 Alpha virt. eigenvalues --    3.42513   3.45418   3.46078   3.46317   3.47058
 Alpha virt. eigenvalues --    3.48313   3.48906   3.49415   3.50935   3.51385
 Alpha virt. eigenvalues --    3.52452   3.53047   3.53348   3.56469   3.57525
 Alpha virt. eigenvalues --    3.57651   3.58006   3.59228   3.59553   3.59828
 Alpha virt. eigenvalues --    3.61490   3.62558   3.63178   3.64960   3.66021
 Alpha virt. eigenvalues --    3.66300   3.67346   3.68670   3.70050   3.72351
 Alpha virt. eigenvalues --    3.72592   3.75653   3.77889   3.79109   3.80592
 Alpha virt. eigenvalues --    3.81260   3.82172   3.82421   3.83183   3.83931
 Alpha virt. eigenvalues --    3.85475   3.87925   3.91056   3.91941   3.92622
 Alpha virt. eigenvalues --    3.93609   3.95442   3.96559   4.00581   4.02209
 Alpha virt. eigenvalues --    4.02409   4.03939   4.07014   4.09967   4.10655
 Alpha virt. eigenvalues --    4.11069   4.11818   4.13142   4.15217   4.15655
 Alpha virt. eigenvalues --    4.17215   4.18621   4.20012   4.20696   4.21450
 Alpha virt. eigenvalues --    4.22949   4.24746   4.25688   4.28089   4.29878
 Alpha virt. eigenvalues --    4.32661   4.32933   4.34650   4.36210   4.37311
 Alpha virt. eigenvalues --    4.38906   4.44617   4.45371   4.46435   4.47705
 Alpha virt. eigenvalues --    4.49725   4.51499   4.51617   4.55051   4.55401
 Alpha virt. eigenvalues --    4.57056   4.58924   4.61695   4.65574   4.67202
 Alpha virt. eigenvalues --    4.69198   4.72042   4.75346   4.75568   4.76810
 Alpha virt. eigenvalues --    4.77898   4.79195   4.84510   4.87864   4.88896
 Alpha virt. eigenvalues --    4.92380   4.92796   4.93464   4.95544   4.97402
 Alpha virt. eigenvalues --    4.99031   5.02623   5.07546   5.09287   5.10906
 Alpha virt. eigenvalues --    5.16754   5.20708   5.22261   5.26053   5.26818
 Alpha virt. eigenvalues --    5.29619   5.36754   5.38694   5.39445   5.39534
 Alpha virt. eigenvalues --    5.42379   5.42680   5.52114   5.53831   5.63233
 Alpha virt. eigenvalues --    5.66508   5.71179   5.74269   5.85170   5.92545
 Alpha virt. eigenvalues --    7.94600   7.95309   8.03057   8.04312   8.05977
 Alpha virt. eigenvalues --    8.10070   8.11119   8.14684   8.19195   8.19484
 Alpha virt. eigenvalues --    8.34216   8.39959  34.76515  34.76896  34.81222
 Alpha virt. eigenvalues --   34.81781  34.84099  34.89865  34.98441  35.00526
 Alpha virt. eigenvalues --   35.01078  35.02719  35.17477  35.23581
  Beta  occ. eigenvalues --  -10.29539 -10.29195 -10.28351 -10.28340 -10.28311
  Beta  occ. eigenvalues --  -10.27980 -10.27958 -10.27932 -10.27890 -10.27808
  Beta  occ. eigenvalues --  -10.27705 -10.27293  -0.94807  -0.93072  -0.84935
  Beta  occ. eigenvalues --   -0.84290  -0.83488  -0.82446  -0.71216  -0.70225
  Beta  occ. eigenvalues --   -0.69155  -0.67703  -0.59905  -0.59423  -0.58022
  Beta  occ. eigenvalues --   -0.56212  -0.53190  -0.53010  -0.50768  -0.50004
  Beta  occ. eigenvalues --   -0.49289  -0.48181  -0.47759  -0.47188  -0.46302
  Beta  occ. eigenvalues --   -0.44564  -0.41303  -0.40905  -0.39728  -0.39472
  Beta  occ. eigenvalues --   -0.38958  -0.37460  -0.31810  -0.23961
  Beta virt. eigenvalues --   -0.00233   0.08818   0.11348   0.13428   0.14223
  Beta virt. eigenvalues --    0.14717   0.15529   0.16483   0.16947   0.17329
  Beta virt. eigenvalues --    0.17411   0.18192   0.19065   0.20041   0.21009
  Beta virt. eigenvalues --    0.21644   0.22251   0.23503   0.24054   0.24436
  Beta virt. eigenvalues --    0.25409   0.25970   0.27104   0.27213   0.27999
  Beta virt. eigenvalues --    0.29292   0.29346   0.30519   0.30994   0.31175
  Beta virt. eigenvalues --    0.31770   0.32553   0.32609   0.33368   0.34588
  Beta virt. eigenvalues --    0.35056   0.36065   0.36728   0.37047   0.38004
  Beta virt. eigenvalues --    0.38210   0.39419   0.41751   0.42123   0.42870
  Beta virt. eigenvalues --    0.44128   0.44594   0.45337   0.45838   0.46268
  Beta virt. eigenvalues --    0.47142   0.47763   0.49221   0.49243   0.49408
  Beta virt. eigenvalues --    0.49488   0.49774   0.49955   0.50777   0.50958
  Beta virt. eigenvalues --    0.51117   0.51680   0.52325   0.52840   0.53620
  Beta virt. eigenvalues --    0.53719   0.54913   0.55157   0.55706   0.56535
  Beta virt. eigenvalues --    0.57281   0.57584   0.58712   0.59476   0.59753
  Beta virt. eigenvalues --    0.59984   0.61173   0.61429   0.63799   0.65365
  Beta virt. eigenvalues --    0.66940   0.67792   0.68456   0.69048   0.69133
  Beta virt. eigenvalues --    0.71308   0.72455   0.73609   0.76444   0.76540
  Beta virt. eigenvalues --    0.78050   0.79247   0.79402   0.81951   0.82313
  Beta virt. eigenvalues --    0.83541   0.84664   0.86169   0.87749   0.88259
  Beta virt. eigenvalues --    0.88609   0.89860   0.93549   0.94294   0.95317
  Beta virt. eigenvalues --    0.96307   0.97931   0.98552   0.98921   0.99819
  Beta virt. eigenvalues --    1.02342   1.02666   1.04390   1.04763   1.06067
  Beta virt. eigenvalues --    1.07636   1.08202   1.08284   1.10188   1.10287
  Beta virt. eigenvalues --    1.12781   1.14373   1.15910   1.17048   1.17670
  Beta virt. eigenvalues --    1.18742   1.18979   1.19643   1.19985   1.20095
  Beta virt. eigenvalues --    1.21247   1.22692   1.24444   1.26098   1.26330
  Beta virt. eigenvalues --    1.27274   1.27603   1.28344   1.29278   1.29512
  Beta virt. eigenvalues --    1.30539   1.30871   1.33457   1.34328   1.34970
  Beta virt. eigenvalues --    1.35342   1.35747   1.36025   1.38480   1.39536
  Beta virt. eigenvalues --    1.39586   1.40090   1.40308   1.41999   1.42760
  Beta virt. eigenvalues --    1.43304   1.44109   1.44429   1.44604   1.45560
  Beta virt. eigenvalues --    1.46306   1.46620   1.47750   1.48306   1.49371
  Beta virt. eigenvalues --    1.50889   1.53807   1.55217   1.56785   1.57863
  Beta virt. eigenvalues --    1.59290   1.60082   1.60165   1.61558   1.63336
  Beta virt. eigenvalues --    1.64093   1.65891   1.66086   1.67358   1.68612
  Beta virt. eigenvalues --    1.72316   1.73652   1.75595   1.77600   1.78939
  Beta virt. eigenvalues --    1.79202   1.81094   1.82137   1.85325   1.85690
  Beta virt. eigenvalues --    1.88125   1.90079   1.91056   1.93313   1.94336
  Beta virt. eigenvalues --    1.97212   1.97802   2.00937   2.02526   2.03952
  Beta virt. eigenvalues --    2.06330   2.06802   2.08794   2.10704   2.11187
  Beta virt. eigenvalues --    2.12824   2.16016   2.16640   2.16835   2.18350
  Beta virt. eigenvalues --    2.19047   2.20134   2.20335   2.21427   2.24236
  Beta virt. eigenvalues --    2.25189   2.25544   2.28440   2.30576   2.32079
  Beta virt. eigenvalues --    2.35111   2.36808   2.38394   2.39351   2.44570
  Beta virt. eigenvalues --    2.45414   2.47521   2.47680   2.48662   2.50036
  Beta virt. eigenvalues --    2.50925   2.54644   2.54949   2.57273   2.57856
  Beta virt. eigenvalues --    2.59337   2.59857   2.61710   2.62490   2.63178
  Beta virt. eigenvalues --    2.64338   2.65040   2.67138   2.68178   2.68870
  Beta virt. eigenvalues --    2.69526   2.72002   2.73322   2.73447   2.74269
  Beta virt. eigenvalues --    2.74630   2.76474   2.76568   2.77762   2.77973
  Beta virt. eigenvalues --    2.79168   2.80476   2.80688   2.82292   2.83469
  Beta virt. eigenvalues --    2.83757   2.84213   2.84721   2.86062   2.87119
  Beta virt. eigenvalues --    2.87204   2.88039   2.89892   2.90720   2.91059
  Beta virt. eigenvalues --    2.92403   2.93070   2.93819   2.95220   2.96617
  Beta virt. eigenvalues --    2.96965   2.98945   2.99604   3.01072   3.02044
  Beta virt. eigenvalues --    3.02644   3.03587   3.05409   3.05892   3.06758
  Beta virt. eigenvalues --    3.08181   3.08798   3.09918   3.10593   3.11483
  Beta virt. eigenvalues --    3.12359   3.12873   3.13296   3.14527   3.14869
  Beta virt. eigenvalues --    3.15870   3.16268   3.18228   3.19028   3.19930
  Beta virt. eigenvalues --    3.20552   3.20924   3.21505   3.22198   3.22841
  Beta virt. eigenvalues --    3.23575   3.24362   3.25047   3.25345   3.26692
  Beta virt. eigenvalues --    3.26838   3.27380   3.27847   3.29902   3.30126
  Beta virt. eigenvalues --    3.30298   3.31216   3.32235   3.32544   3.34870
  Beta virt. eigenvalues --    3.35643   3.35970   3.36284   3.36685   3.37313
  Beta virt. eigenvalues --    3.38699   3.39863   3.40568   3.40657   3.42214
  Beta virt. eigenvalues --    3.42513   3.45418   3.46078   3.46317   3.47058
  Beta virt. eigenvalues --    3.48313   3.48906   3.49415   3.50935   3.51385
  Beta virt. eigenvalues --    3.52452   3.53047   3.53348   3.56470   3.57525
  Beta virt. eigenvalues --    3.57651   3.58006   3.59228   3.59553   3.59828
  Beta virt. eigenvalues --    3.61490   3.62558   3.63178   3.64960   3.66021
  Beta virt. eigenvalues --    3.66300   3.67346   3.68670   3.70050   3.72351
  Beta virt. eigenvalues --    3.72592   3.75653   3.77889   3.79109   3.80592
  Beta virt. eigenvalues --    3.81260   3.82172   3.82421   3.83183   3.83931
  Beta virt. eigenvalues --    3.85475   3.87925   3.91056   3.91941   3.92622
  Beta virt. eigenvalues --    3.93609   3.95442   3.96559   4.00581   4.02209
  Beta virt. eigenvalues --    4.02409   4.03939   4.07014   4.09967   4.10655
  Beta virt. eigenvalues --    4.11069   4.11818   4.13142   4.15217   4.15655
  Beta virt. eigenvalues --    4.17215   4.18621   4.20012   4.20696   4.21450
  Beta virt. eigenvalues --    4.22949   4.24746   4.25688   4.28089   4.29878
  Beta virt. eigenvalues --    4.32661   4.32933   4.34650   4.36210   4.37311
  Beta virt. eigenvalues --    4.38906   4.44617   4.45371   4.46435   4.47705
  Beta virt. eigenvalues --    4.49725   4.51499   4.51617   4.55051   4.55401
  Beta virt. eigenvalues --    4.57056   4.58924   4.61695   4.65574   4.67202
  Beta virt. eigenvalues --    4.69198   4.72042   4.75346   4.75568   4.76810
  Beta virt. eigenvalues --    4.77898   4.79195   4.84510   4.87864   4.88896
  Beta virt. eigenvalues --    4.92380   4.92796   4.93464   4.95544   4.97402
  Beta virt. eigenvalues --    4.99031   5.02623   5.07546   5.09287   5.10906
  Beta virt. eigenvalues --    5.16754   5.20708   5.22261   5.26053   5.26818
  Beta virt. eigenvalues --    5.29619   5.36754   5.38694   5.39446   5.39534
  Beta virt. eigenvalues --    5.42379   5.42680   5.52114   5.53831   5.63233
  Beta virt. eigenvalues --    5.66508   5.71179   5.74269   5.85170   5.92545
  Beta virt. eigenvalues --    7.94599   7.95309   8.03057   8.04312   8.05977
  Beta virt. eigenvalues --    8.10070   8.11119   8.14684   8.19195   8.19484
  Beta virt. eigenvalues --    8.34216   8.39959  34.76515  34.76896  34.81222
  Beta virt. eigenvalues --   34.81781  34.84099  34.89865  34.98441  35.00526
  Beta virt. eigenvalues --   35.01078  35.02719  35.17477  35.23581
          Condensed to atoms (all electrons):
               1          2          3          4          5          6
     1  C    5.209450   0.001856   0.425222  -0.002910   0.002283  -0.008231
     2  C    0.001856   5.400779  -0.001709   0.435913  -0.109682   0.140252
     3  H    0.425222  -0.001709   0.488071   0.000037  -0.000019   0.000107
     4  H   -0.002910   0.435913   0.000037   0.485699  -0.011595  -0.012825
     5  C    0.002283  -0.109682  -0.000019  -0.011595   5.280830   0.395355
     6  C   -0.008231   0.140252   0.000107  -0.012825   0.395355   5.400367
     7  H    0.000051  -0.002493   0.000002   0.000196   0.439221  -0.034198
     8  H    0.000928  -0.012778  -0.000106   0.000261  -0.041012   0.435883
     9  C    0.002622  -0.045548  -0.000008  -0.004839  -0.051335   0.227921
    10  H   -0.000027   0.005748  -0.000001  -0.000474  -0.006192  -0.048252
    11  H   -0.000161  -0.008620   0.000004   0.001037   0.011254  -0.059390
    12  C   -0.000261   0.016849  -0.000000   0.005508   0.324308  -0.059793
    13  H   -0.000001   0.000160   0.000000   0.000037  -0.030324   0.003347
    14  C    0.000108  -0.008230  -0.000000   0.000950  -0.046738   0.001960
    15  H   -0.000000   0.000109  -0.000000  -0.000107   0.004758  -0.001729
    16  C   -0.000398   0.016981   0.000000  -0.001287   0.002736  -0.070476
    17  H    0.000032   0.001821  -0.000000  -0.005024   0.008993  -0.007412
    18  H    0.000001   0.000021   0.000000   0.000482  -0.003383   0.013009
    19  C   -0.046787   0.395174   0.004715  -0.041030  -0.020391  -0.109588
    20  H    0.004491  -0.034262  -0.000120  -0.005522  -0.000276  -0.002493
    21  C    0.517073  -0.059766  -0.030531   0.006098   0.003083   0.016862
    22  H   -0.025112   0.003276  -0.005165  -0.000070   0.000053   0.000163
    23  C   -0.084497   0.227902   0.004771  -0.016953   0.013049  -0.045525
    24  H    0.013476  -0.059392  -0.000047  -0.003702   0.006359  -0.008604
    25  H    0.001803  -0.048135  -0.000077  -0.003644   0.000055   0.005747
    26  C    0.266435  -0.070595  -0.027242   0.006867  -0.012285   0.016993
    27  H   -0.034765   0.013032  -0.004290  -0.000084   0.000340   0.000020
    28  H   -0.037133  -0.007379   0.000545  -0.000163  -0.003815   0.001797
               7          8          9         10         11         12
     1  C    0.000051   0.000928   0.002622  -0.000027  -0.000161  -0.000261
     2  C   -0.002493  -0.012778  -0.045548   0.005748  -0.008620   0.016849
     3  H    0.000002  -0.000106  -0.000008  -0.000001   0.000004  -0.000000
     4  H    0.000196   0.000261  -0.004839  -0.000474   0.001037   0.005508
     5  C    0.439221  -0.041012  -0.051335  -0.006192   0.011254   0.324308
     6  C   -0.034198   0.435883   0.227921  -0.048252  -0.059390  -0.059793
     7  H    0.476760  -0.005535   0.003292   0.000011  -0.000003  -0.035661
     8  H   -0.005535   0.485770  -0.016960  -0.003646  -0.003704   0.006094
     9  C    0.003292  -0.016960   5.008694   0.409446   0.462785   0.031148
    10  H    0.000011  -0.003646   0.409446   0.559800  -0.018357   0.001288
    11  H   -0.000003  -0.003704   0.462785  -0.018357   0.523320  -0.005370
    12  C   -0.035661   0.006094   0.031148   0.001288  -0.005370   5.039462
    13  H   -0.003528  -0.000070   0.000572  -0.000118   0.000026   0.420589
    14  C    0.004523  -0.002912  -0.084538   0.001769   0.013487   0.516893
    15  H   -0.000120   0.000037   0.004776  -0.000077  -0.000047  -0.030835
    16  C   -0.001273   0.006868   0.325715  -0.024151  -0.056394  -0.051269
    17  H    0.000004  -0.000163  -0.028915   0.005460  -0.005757  -0.010429
    18  H    0.000037  -0.000084  -0.043754  -0.007773  -0.001519   0.005694
    19  C   -0.000273  -0.011622   0.012985   0.000065   0.006376   0.003077
    20  H    0.000002   0.000193   0.002945   0.000338  -0.003194  -0.000060
    21  C   -0.000060   0.005536  -0.003200  -0.000180  -0.000232  -0.000275
    22  H   -0.000001   0.000038  -0.000080  -0.000002  -0.000030  -0.000001
    23  C    0.002948  -0.004876   0.005541  -0.000224   0.000284  -0.003205
    24  H   -0.003221   0.001035   0.000284  -0.000031  -0.000006  -0.000233
    25  H    0.000338  -0.000472  -0.000224   0.000017  -0.000031  -0.000179
    26  C   -0.001180  -0.001267  -0.001579   0.000048  -0.000070   0.001457
    27  H   -0.000025   0.000484   0.000018  -0.000000  -0.000002  -0.000027
    28  H    0.002063  -0.005027   0.000548   0.000012   0.000020   0.000235
              13         14         15         16         17         18
     1  C   -0.000001   0.000108  -0.000000  -0.000398   0.000032   0.000001
     2  C    0.000160  -0.008230   0.000109   0.016981   0.001821   0.000021
     3  H    0.000000  -0.000000  -0.000000   0.000000  -0.000000   0.000000
     4  H    0.000037   0.000950  -0.000107  -0.001287  -0.005024   0.000482
     5  C   -0.030324  -0.046738   0.004758   0.002736   0.008993  -0.003383
     6  C    0.003347   0.001960  -0.001729  -0.070476  -0.007412   0.013009
     7  H   -0.003528   0.004523  -0.000120  -0.001273   0.000004   0.000037
     8  H   -0.000070  -0.002912   0.000037   0.006868  -0.000163  -0.000084
     9  C    0.000572  -0.084538   0.004776   0.325715  -0.028915  -0.043754
    10  H   -0.000118   0.001769  -0.000077  -0.024151   0.005460  -0.007773
    11  H    0.000026   0.013487  -0.000047  -0.056394  -0.005757  -0.001519
    12  C    0.420589   0.516893  -0.030835  -0.051269  -0.010429   0.005694
    13  H    0.489249  -0.024899  -0.005174   0.003496  -0.000382  -0.000090
    14  C   -0.024899   5.209421   0.425483   0.266461  -0.037129  -0.034662
    15  H   -0.005174   0.425483   0.488165  -0.027225   0.000544  -0.004278
    16  C    0.003496   0.266461  -0.027225   4.983865   0.404954   0.429328
    17  H   -0.000382  -0.037129   0.000544   0.404954   0.574528  -0.021889
    18  H   -0.000090  -0.034662  -0.004278   0.429328  -0.021889   0.537337
    19  C    0.000054   0.002284  -0.000019  -0.012299  -0.003829   0.000341
    20  H   -0.000001   0.000050   0.000002  -0.001175   0.002051  -0.000025
    21  C   -0.000001  -0.000260  -0.000000   0.001455   0.000233  -0.000027
    22  H    0.000000  -0.000001   0.000000   0.000006  -0.000001  -0.000001
    23  C   -0.000078   0.002622  -0.000008  -0.001574   0.000547   0.000017
    24  H   -0.000031  -0.000163   0.000004  -0.000070   0.000020  -0.000002
    25  H   -0.000002  -0.000027  -0.000001   0.000049   0.000012  -0.000000
    26  C    0.000006  -0.000398   0.000000   0.000422  -0.000038  -0.000000
    27  H   -0.000001   0.000001   0.000000  -0.000000   0.000001  -0.000000
    28  H   -0.000001   0.000032  -0.000000  -0.000038  -0.000010   0.000001
              19         20         21         22         23         24
     1  C   -0.046787   0.004491   0.517073  -0.025112  -0.084497   0.013476
     2  C    0.395174  -0.034262  -0.059766   0.003276   0.227902  -0.059392
     3  H    0.004715  -0.000120  -0.030531  -0.005165   0.004771  -0.000047
     4  H   -0.041030  -0.005522   0.006098  -0.000070  -0.016953  -0.003702
     5  C   -0.020391  -0.000276   0.003083   0.000053   0.013049   0.006359
     6  C   -0.109588  -0.002493   0.016862   0.000163  -0.045525  -0.008604
     7  H   -0.000273   0.000002  -0.000060  -0.000001   0.002948  -0.003221
     8  H   -0.011622   0.000193   0.005536   0.000038  -0.004876   0.001035
     9  C    0.012985   0.002945  -0.003200  -0.000080   0.005541   0.000284
    10  H    0.000065   0.000338  -0.000180  -0.000002  -0.000224  -0.000031
    11  H    0.006376  -0.003194  -0.000232  -0.000030   0.000284  -0.000006
    12  C    0.003077  -0.000060  -0.000275  -0.000001  -0.003205  -0.000233
    13  H    0.000054  -0.000001  -0.000001   0.000000  -0.000078  -0.000031
    14  C    0.002284   0.000050  -0.000260  -0.000001   0.002622  -0.000163
    15  H   -0.000019   0.000002  -0.000000   0.000000  -0.000008   0.000004
    16  C   -0.012299  -0.001175   0.001455   0.000006  -0.001574  -0.000070
    17  H   -0.003829   0.002051   0.000233  -0.000001   0.000547   0.000020
    18  H    0.000341  -0.000025  -0.000027  -0.000001   0.000017  -0.000002
    19  C    5.280963   0.439450   0.324266  -0.030245  -0.051242   0.011249
    20  H    0.439450   0.476387  -0.035747  -0.003525   0.003277  -0.000003
    21  C    0.324266  -0.035747   5.039464   0.420812   0.031171  -0.005369
    22  H   -0.030245  -0.003525   0.420812   0.489264   0.000569   0.000026
    23  C   -0.051242   0.003277   0.031171   0.000569   5.008715   0.462834
    24  H    0.011249  -0.000003  -0.005369   0.000026   0.462834   0.523208
    25  H   -0.006215   0.000013   0.001271  -0.000118   0.409342  -0.018383
    26  C    0.002887  -0.001269  -0.051357   0.003504   0.325534  -0.056369
    27  H   -0.003405   0.000037   0.005769  -0.000089  -0.043748  -0.001527
    28  H    0.008986   0.000004  -0.010455  -0.000382  -0.028954  -0.005755
              25         26         27         28
     1  C    0.001803   0.266435  -0.034765  -0.037133
     2  C   -0.048135  -0.070595   0.013032  -0.007379
     3  H   -0.000077  -0.027242  -0.004290   0.000545
     4  H   -0.003644   0.006867  -0.000084  -0.000163
     5  C    0.000055  -0.012285   0.000340  -0.003815
     6  C    0.005747   0.016993   0.000020   0.001797
     7  H    0.000338  -0.001180  -0.000025   0.002063
     8  H   -0.000472  -0.001267   0.000484  -0.005027
     9  C   -0.000224  -0.001579   0.000018   0.000548
    10  H    0.000017   0.000048  -0.000000   0.000012
    11  H   -0.000031  -0.000070  -0.000002   0.000020
    12  C   -0.000179   0.001457  -0.000027   0.000235
    13  H   -0.000002   0.000006  -0.000001  -0.000001
    14  C   -0.000027  -0.000398   0.000001   0.000032
    15  H   -0.000001   0.000000   0.000000  -0.000000
    16  C    0.000049   0.000422  -0.000000  -0.000038
    17  H    0.000012  -0.000038   0.000001  -0.000010
    18  H   -0.000000  -0.000000  -0.000000   0.000001
    19  C   -0.006215   0.002887  -0.003405   0.008986
    20  H    0.000013  -0.001269   0.000037   0.000004
    21  C    0.001271  -0.051357   0.005769  -0.010455
    22  H   -0.000118   0.003504  -0.000089  -0.000382
    23  C    0.409342   0.325534  -0.043748  -0.028954
    24  H   -0.018383  -0.056369  -0.001527  -0.005755
    25  H    0.559835  -0.024182  -0.007754   0.005460
    26  C   -0.024182   4.984161   0.429376   0.404943
    27  H   -0.007754   0.429376   0.537185  -0.021879
    28  H    0.005460   0.404943  -0.021879   0.574615
          Atomic-Atomic Spin Densities.
               1          2          3          4          5          6
     1  C    0.375784   0.000396  -0.000238   0.000183   0.000143   0.003784
     2  C    0.000396  -0.326548   0.000041   0.005713   0.074348  -0.000072
     3  H   -0.000238   0.000041  -0.013577   0.000000  -0.000002  -0.000042
     4  H    0.000183   0.005713   0.000000   0.015682  -0.004989  -0.012664
     5  C    0.000143   0.074348  -0.000002  -0.004989  -0.558021   0.031162
     6  C    0.003784  -0.000072  -0.000042  -0.012664   0.031162   0.326562
     7  H   -0.000005  -0.000545  -0.000000   0.000001   0.001824  -0.000034
     8  H   -0.001439   0.012660   0.000004  -0.000000  -0.002498  -0.005700
     9  C   -0.000088   0.013273   0.000001   0.001721  -0.003823  -0.019168
    10  H    0.000054  -0.000802  -0.000000  -0.000099   0.001430  -0.004251
    11  H   -0.000206  -0.000364   0.000001   0.000227  -0.000301  -0.003206
    12  C   -0.000062  -0.011015   0.000000   0.002811   0.019787  -0.020408
    13  H   -0.000000  -0.000149   0.000000   0.000038   0.000978  -0.000374
    14  C    0.000000  -0.003780   0.000000   0.001442   0.031392  -0.000398
    15  H   -0.000000   0.000042   0.000000  -0.000004  -0.000021  -0.000041
    16  C   -0.000016  -0.000100  -0.000000  -0.000697  -0.000726   0.000774
    17  H    0.000012   0.003181  -0.000000  -0.001147  -0.004115   0.003573
    18  H   -0.000000  -0.000292  -0.000000   0.000061   0.000549  -0.000801
    19  C   -0.031379  -0.031101   0.000022   0.002501   0.000028  -0.074354
    20  H   -0.000204   0.000035   0.000003   0.000175   0.000079   0.000541
    21  C    0.004547   0.020381  -0.000116  -0.001463  -0.001425   0.011026
    22  H   -0.000339   0.000372   0.000111  -0.000022  -0.000012   0.000149
    23  C    0.002780   0.019219  -0.000158   0.002790  -0.006760  -0.013225
    24  H    0.000136   0.003205   0.000001  -0.000371  -0.004134   0.000368
    25  H   -0.000911   0.004249   0.000000   0.000174   0.001325   0.000800
    26  C   -0.017789  -0.000779   0.000484  -0.000068  -0.000292   0.000087
    27  H   -0.004737   0.000798   0.000039  -0.000039   0.000016   0.000293
    28  H   -0.010275  -0.003563   0.000078   0.000181   0.000224  -0.003188
               7          8          9         10         11         12
     1  C   -0.000005  -0.001439  -0.000088   0.000054  -0.000206  -0.000062
     2  C   -0.000545   0.012660   0.013273  -0.000802  -0.000364  -0.011015
     3  H   -0.000000   0.000004   0.000001  -0.000000   0.000001   0.000000
     4  H    0.000001  -0.000000   0.001721  -0.000099   0.000227   0.002811
     5  C    0.001824  -0.002498  -0.003823   0.001430  -0.000301   0.019787
     6  C   -0.000034  -0.005700  -0.019168  -0.004251  -0.003206  -0.020408
     7  H    0.017822  -0.000174   0.000227   0.000017  -0.000006  -0.001620
     8  H   -0.000174  -0.015682  -0.002801  -0.000173   0.000370   0.001462
     9  C    0.000227  -0.002801  -0.008578   0.003576   0.001051   0.005326
    10  H    0.000017  -0.000173   0.003576   0.011481  -0.002078  -0.000539
    11  H   -0.000006   0.000370   0.001051  -0.002078   0.003587   0.000192
    12  C   -0.001620   0.001462   0.005326  -0.000539   0.000192   0.173561
    13  H   -0.000170   0.000022   0.000118  -0.000022   0.000002  -0.000978
    14  C    0.000206  -0.000182  -0.002796   0.000912  -0.000137  -0.004578
    15  H   -0.000003  -0.000000   0.000158  -0.000000  -0.000001   0.000105
    16  C   -0.000055   0.000069  -0.002686  -0.001440   0.000292  -0.004260
    17  H    0.000013  -0.000181   0.000125   0.000176  -0.000216   0.001375
    18  H   -0.000001   0.000039  -0.001105   0.000090   0.000002  -0.000792
    19  C   -0.000078   0.004986   0.006762  -0.001323   0.004136   0.001419
    20  H   -0.000000  -0.000000  -0.000212  -0.000002   0.000106  -0.000028
    21  C    0.000028  -0.002811  -0.000907   0.000155  -0.000475   0.000000
    22  H    0.000000  -0.000038  -0.000012   0.000002  -0.000018   0.000000
    23  C    0.000213  -0.001724  -0.000003  -0.000009   0.000155   0.000904
    24  H   -0.000106  -0.000227  -0.000156   0.000004  -0.000000   0.000474
    25  H    0.000002   0.000099   0.000009  -0.000000  -0.000004  -0.000155
    26  C   -0.000071   0.000697   0.000005  -0.000010   0.000011   0.000112
    27  H   -0.000001  -0.000061  -0.000008   0.000000  -0.000002  -0.000010
    28  H    0.000022   0.001146   0.000186  -0.000023   0.000034   0.000105
              13         14         15         16         17         18
     1  C   -0.000000   0.000000  -0.000000  -0.000016   0.000012  -0.000000
     2  C   -0.000149  -0.003780   0.000042  -0.000100   0.003181  -0.000292
     3  H    0.000000   0.000000   0.000000  -0.000000  -0.000000  -0.000000
     4  H    0.000038   0.001442  -0.000004  -0.000697  -0.001147   0.000061
     5  C    0.000978   0.031392  -0.000021  -0.000726  -0.004115   0.000549
     6  C   -0.000374  -0.000398  -0.000041   0.000774   0.003573  -0.000801
     7  H   -0.000170   0.000206  -0.000003  -0.000055   0.000013  -0.000001
     8  H    0.000022  -0.000182  -0.000000   0.000069  -0.000181   0.000039
     9  C    0.000118  -0.002796   0.000158  -0.002686   0.000125  -0.001105
[...]
     2  C    0.003807  -0.000892   0.001076  -0.004389
     3  H    0.000001   0.000384   0.000027   0.000090
     4  H    0.000082  -0.000082  -0.000035   0.000160
     5  C    0.001243   0.000430   0.000015   0.000024
     6  C    0.000567   0.000579   0.000216  -0.002420
     7  H   -0.000004  -0.000101  -0.000002   0.000038
     8  H    0.000085   0.000629  -0.000047   0.000871
     9  C    0.000016   0.000016  -0.000010   0.000200
    10  H    0.000000  -0.000005   0.000000  -0.000020
    11  H   -0.000003   0.000001  -0.000001   0.000025
    12  C   -0.000147   0.000041  -0.000007   0.000081
    13  H   -0.000002   0.000001  -0.000000   0.000001
    14  C   -0.000043   0.000006   0.000000  -0.000009
    15  H    0.000000   0.000000   0.000000   0.000000
    16  C    0.000005   0.000001   0.000000   0.000002
    17  H    0.000020  -0.000001   0.000000  -0.000000
    18  H   -0.000000  -0.000000   0.000000  -0.000000
    19  C   -0.001288  -0.001072  -0.000662   0.004460
    20  H   -0.000005   0.000085   0.000002  -0.000017
    21  C    0.000443   0.004854   0.000823  -0.001611
    22  H    0.000017   0.000115   0.000012  -0.000028
    23  C   -0.002611   0.003434   0.000555   0.000950
    24  H    0.001719   0.000002   0.000001   0.000134
    25  H   -0.010917   0.000793  -0.000052  -0.000137
    26  C    0.000793  -0.021958   0.003414   0.003869
    27  H   -0.000052   0.003414   0.011690  -0.004515
    28  H   -0.000137   0.003869  -0.004515   0.028789
 Mulliken charges and spin densities:
               1          2
     1  C   -0.202633   0.318028
     2  C   -0.203008  -0.219495
     3  H    0.149213  -0.013086
     4  H    0.177479   0.012198
     5  C   -0.171202  -0.421674
     6  C   -0.202723   0.219540
     7  H    0.163929   0.017155
     8  H    0.176901  -0.012181
     9  C   -0.238825  -0.009456
    10  H    0.134292   0.007096
    11  H    0.150655   0.002827
    12  C   -0.173397   0.161914
    13  H    0.149693  -0.006256
    14  C   -0.202885  -0.318061
    15  H    0.149202   0.013084
    16  C   -0.198478   0.021359
    17  H    0.127017  -0.017289
    18  H    0.135813  -0.007848
    19  C   -0.170939   0.421669
    20  H    0.163636  -0.017164
    21  C   -0.173618  -0.161885
    22  H    0.149822   0.006257
    23  C   -0.237363   0.009379
    24  H    0.151400  -0.002799
    25  H    0.133265  -0.007093
    26  C   -0.199721  -0.021362
    27  H    0.135778   0.007845
    28  H    0.126697   0.017296
 Sum of Mulliken charges =  -0.00000  -0.00000
 Mulliken charges and spin densities with hydrogens summed into heavy atoms:
               1          2
     1  C   -0.053419   0.304942
     2  C   -0.025529  -0.207297
     5  C   -0.007273  -0.404519
     6  C   -0.025822   0.207360
     9  C    0.046122   0.000467
    12  C   -0.023704   0.155658
    14  C   -0.053683  -0.304977
    16  C    0.064352  -0.003778
    19  C   -0.007303   0.404506
    21  C   -0.023796  -0.155628
    23  C    0.047302  -0.000514
    26  C    0.062753   0.003779
 Electronic spatial extent (au):  <R**2>=           2189.3668
 Charge=             -0.0000 electrons
 Dipole moment (field-independent basis, Debye):
    X=             -0.0006    Y=              0.0023    Z=             -0.0060  Tot=              0.0065
 Quadrupole moment (field-independent basis, Debye-Ang):
   XX=            -70.4415   YY=            -68.9168   ZZ=            -75.1614
   XY=             -3.0832   XZ=             -3.1487   YZ=             -0.8106
 Traceless Quadrupole moment (field-independent basis, Debye-Ang):
   XX=              1.0650   YY=              2.5898   ZZ=             -3.6548
   XY=             -3.0832   XZ=             -3.1487   YZ=             -0.8106
 Octapole moment (field-independent basis, Debye-Ang**2):
  XXX=             -0.0164  YYY=              0.0218  ZZZ=             -0.0336  XYY=              0.0085
  XXY=             -0.0026  XXZ=             -0.0209  XZZ=             -0.0114  YZZ=              0.0000
  YYZ=             -0.0043  XYZ=             -0.0025
 Hexadecapole moment (field-independent basis, Debye-Ang**3):
 XXXX=          -1972.9656 YYYY=           -612.0374 ZZZZ=           -305.9548 XXXY=            -95.1610
 XXXZ=           -117.1778 YYYX=            -56.2293 YYYZ=              0.1456 ZZZX=            -64.2793
 ZZZY=             -8.6851 XXYY=           -428.4532 XXZZ=           -407.6687 YYZZ=           -168.0541
 XXYZ=            -20.2736 YYXZ=            -24.3873 ZZXY=            -41.1039
 N-N= 6.916068240435D+02 E-N=-2.465658659030D+03  KE= 4.642379340403D+02
                          Isotropic Fermi Contact Couplings
        Atom                 a.u.       MegaHertz       Gauss      10(-4) cm-1
     1  C(13)              0.02449      13.76376       4.91125       4.59110
     2  C(13)             -0.06598     -37.08493     -13.23283     -12.37020
     3  H(1)              -0.00489     -10.92303      -3.89761      -3.64353
     4  H(1)               0.00669      14.96071       5.33835       4.99036
     5  C(13)             -0.03374     -18.96737      -6.76803      -6.32683
     6  C(13)              0.06602      37.10736      13.24083      12.37768
     7  H(1)               0.00645      14.41879       5.14498       4.80959
     8  H(1)              -0.00669     -14.95621      -5.33675      -4.98885
     9  C(13)             -0.00878      -4.93416      -1.76063      -1.64586
    10  H(1)               0.00387       8.64199       3.08368       2.88266
    11  H(1)               0.00088       1.96225       0.70018       0.65454
    12  C(13)              0.02829      15.89955       5.67336       5.30352
    13  H(1)              -0.00215      -4.81540      -1.71825      -1.60624
    14  C(13)             -0.02449     -13.76513      -4.91174      -4.59155
    15  H(1)               0.00489      10.92425       3.89804       3.64394
    16  C(13)              0.01184       6.65244       2.37376       2.21902
    17  H(1)              -0.00837     -18.69724      -6.67164      -6.23673
    18  H(1)              -0.00374      -8.35499      -2.98127      -2.78693
    19  C(13)              0.03375      18.96883       6.76855       6.32732
    20  H(1)              -0.00645     -14.41728      -5.14444      -4.80909
    21  C(13)             -0.02829     -15.89910      -5.67320      -5.30337
    22  H(1)               0.00215       4.81562       1.71833       1.60632
    23  C(13)              0.00877       4.93207       1.75988       1.64516
    24  H(1)              -0.00088      -1.96378      -0.70073      -0.65505
    25  H(1)              -0.00387      -8.64139      -3.08346      -2.88246
    26  C(13)             -0.01183      -6.65111      -2.37328      -2.21857
    27  H(1)               0.00374       8.35454       2.98111       2.78678
    28  H(1)               0.00836      18.69085       6.66936       6.23460
 --------------------------------------------------------
       Center         ----  Spin Dipole Couplings  ----
                      3XX-RR        3YY-RR        3ZZ-RR
 --------------------------------------------------------
     1   Atom       -0.065799     -0.188844      0.254643
     2   Atom        0.053303      0.129315     -0.182619
     3   Atom        0.018328     -0.023844      0.005517
     4   Atom       -0.008055      0.014906     -0.006851
     5   Atom        0.145986      0.254542     -0.400528
     6   Atom       -0.053294     -0.129324      0.182618
     7   Atom        0.009038     -0.008433     -0.000605
     8   Atom        0.008055     -0.014910      0.006855
     9   Atom       -0.000437     -0.004116      0.004553
    10   Atom        0.002678     -0.001794     -0.000883
    11   Atom        0.002785     -0.002462     -0.000322
    12   Atom       -0.047926     -0.076546      0.124472
    13   Atom       -0.006146      0.003533      0.002613
    14   Atom        0.065813      0.188860     -0.254673
    15   Atom       -0.018330      0.023847     -0.005517
    16   Atom        0.002672     -0.002449     -0.000222
    17   Atom        0.003931     -0.004929      0.000998
    18   Atom        0.003718     -0.005739      0.002021
    19   Atom       -0.146023     -0.254542      0.400566
    20   Atom       -0.009035      0.008433      0.000602
    21   Atom        0.047928      0.076547     -0.124475
    22   Atom        0.006147     -0.003534     -0.002613
    23   Atom        0.000436      0.004116     -0.004551
    24   Atom       -0.002784      0.002463      0.000321
    25   Atom       -0.002678      0.001794      0.000884
    26   Atom       -0.002669      0.002452      0.000217
    27   Atom       -0.003718      0.005739     -0.002021
    28   Atom       -0.003930      0.004929     -0.001000
 --------------------------------------------------------
                        XY            XZ            YZ
 --------------------------------------------------------
     1   Atom       -0.003216      0.225156     -0.009536
     2   Atom       -0.027392     -0.158351     -0.070297
     3   Atom        0.004518     -0.009383     -0.002831
     4   Atom        0.001008      0.006559     -0.005768
     5   Atom        0.003080     -0.256704     -0.022928
     6   Atom        0.027401      0.158375      0.070316
     7   Atom        0.029320     -0.005712     -0.009973
     8   Atom       -0.001010     -0.006562      0.005768
     9   Atom        0.006745      0.006058     -0.002613
    10   Atom       -0.000902      0.003030      0.002475
    11   Atom       -0.002961      0.004865      0.000636
    12   Atom        0.007163      0.094199     -0.013303
    13   Atom        0.005600      0.005212     -0.002446
    14   Atom        0.003205     -0.225171      0.009515
    15   Atom       -0.004519      0.009383      0.002830
    16   Atom       -0.001468     -0.006516      0.000665
    17   Atom       -0.002104     -0.001501     -0.002268
    18   Atom        0.000936      0.000100      0.001562
    19   Atom       -0.003058      0.256669      0.022991
    20   Atom       -0.029326      0.005717      0.009963
    21   Atom       -0.007164     -0.094201      0.013302
    22   Atom       -0.005600     -0.005212      0.002446
    23   Atom       -0.006738     -0.006052      0.002602
    24   Atom        0.002963     -0.004864     -0.000636
    25   Atom        0.000902     -0.003029     -0.002474
    26   Atom        0.001468      0.006511     -0.000664
    27   Atom       -0.000937     -0.000100     -0.001561
    28   Atom        0.002104      0.001500      0.002267
 --------------------------------------------------------


 ---------------------------------------------------------------------------------
              Anisotropic Spin Dipole Couplings in Principal Axis System
 ---------------------------------------------------------------------------------

       Atom             a.u.   MegaHertz   Gauss  10(-4) cm-1        Axes

              Baa    -0.1893   -25.406    -9.066    -8.475 -0.1698  0.9796  0.1072
     1 C(13)  Bbb    -0.1816   -24.371    -8.696    -8.129  0.8724  0.2000 -0.4459
              Bcc     0.3709    49.777    17.762    16.604  0.4583 -0.0178  0.8886
 
              Baa    -0.2760   -37.042   -13.217   -12.356  0.4383  0.1823  0.8801
     2 C(13)  Bbb     0.1293    17.356     6.193     5.789  0.8373 -0.4388 -0.3261
              Bcc     0.1467    19.686     7.024     6.567  0.3268  0.8799 -0.3450
 
              Baa    -0.0244   -13.042    -4.654    -4.350 -0.0906  0.9937  0.0655
     3 H(1)   Bbb     0.0006     0.303     0.108     0.101  0.4701 -0.0153  0.8825
              Bcc     0.0239    12.739     4.546     4.249  0.8779  0.1108 -0.4658
 
              Baa    -0.0148    -7.889    -2.815    -2.631  0.7012 -0.1588 -0.6951
     4 H(1)   Bbb    -0.0016    -0.838    -0.299    -0.280  0.7125  0.1926  0.6747
              Bcc     0.0164     8.727     3.114     2.911 -0.0267  0.9683 -0.2482
 
              Baa    -0.5027   -67.462   -24.072   -22.503  0.3677  0.0266  0.9296
     5 C(13)  Bbb     0.2395    32.134    11.466    10.719  0.7590 -0.5862 -0.2834
              Bcc     0.2633    35.327    12.606    11.784  0.5374  0.8097 -0.2358
 
              Baa    -0.1467   -19.688    -7.025    -6.567  0.3269  0.8798 -0.3450
     6 C(13)  Bbb    -0.1293   -17.357    -6.193    -5.790  0.8373 -0.4389 -0.3261
              Bcc     0.2761    37.045    13.219    12.357  0.4384  0.1823  0.8801
 
              Baa    -0.0310   -16.553    -5.907    -5.522 -0.5684  0.8074  0.1580
     7 H(1)   Bbb    -0.0031    -1.654    -0.590    -0.552  0.3294  0.0473  0.9430
              Bcc     0.0341    18.208     6.497     6.073  0.7539  0.5880 -0.2929
 
              Baa    -0.0164    -8.729    -3.115    -2.912 -0.0267  0.9684 -0.2481
     8 H(1)   Bbb     0.0016     0.837     0.299     0.279  0.7126  0.1925  0.6747
              Bcc     0.0148     7.892     2.816     2.632  0.7011 -0.1588 -0.6952
 
              Baa    -0.0114    -1.533    -0.547    -0.511 -0.6226  0.6997  0.3505
     9 C(13)  Bbb     0.0025     0.342     0.122     0.114  0.4777  0.6945 -0.5380
              Bcc     0.0089     1.192     0.425     0.397  0.6198  0.1676  0.7666
 
              Baa    -0.0048    -2.584    -0.922    -0.862 -0.3496 -0.6506  0.6741
    10 H(1)   Bbb     0.0004     0.210     0.075     0.070 -0.3960  0.7547  0.5231
              Bcc     0.0044     2.374     0.847     0.792  0.8491  0.0841  0.5215
 
              Baa    -0.0057    -3.021    -1.078    -1.008  0.5440  0.6166 -0.5691
    11 H(1)   Bbb    -0.0011    -0.608    -0.217    -0.203 -0.2034  0.7549  0.6235
              Bcc     0.0068     3.629     1.295     1.210  0.8141 -0.2234  0.5360
 
              Baa    -0.0966   -12.964    -4.626    -4.324  0.7759 -0.5168 -0.3617
    12 C(13)  Bbb    -0.0697    -9.354    -3.338    -3.120  0.4869  0.8552 -0.1776
              Bcc     0.1663    22.318     7.964     7.444  0.4011 -0.0383  0.9152
 
              Baa    -0.0111    -5.934    -2.117    -1.979  0.8381 -0.3848 -0.3866
    13 H(1)   Bbb     0.0050     2.680     0.956     0.894  0.3713 -0.1167  0.9211
              Bcc     0.0061     3.253     1.161     1.085  0.3996  0.9156 -0.0451
 
              Baa    -0.3710   -49.781   -17.763   -16.605  0.4582 -0.0177  0.8887
    14 C(13)  Bbb     0.1816    24.373     8.697     8.130  0.8724  0.2001 -0.4459
              Bcc     0.1893    25.408     9.066     8.475 -0.1699  0.9796  0.1071
 
              Baa    -0.0239   -12.740    -4.546    -4.250  0.8780  0.1107 -0.4657
    15 H(1)   Bbb    -0.0006    -0.303    -0.108    -0.101  0.4701 -0.0153  0.8825
              Bcc     0.0244    13.043     4.654     4.351 -0.0906  0.9937  0.0655
 
              Baa    -0.0055    -0.739    -0.264    -0.246  0.6322  0.1380  0.7624
    16 C(13)  Bbb    -0.0026    -0.352    -0.126    -0.117  0.0265  0.9796 -0.1992
              Bcc     0.0081     1.091     0.389     0.364  0.7743 -0.1461 -0.6157
 
              Baa    -0.0063    -3.361    -1.199    -1.121  0.2365  0.9130  0.3324
    17 H(1)   Bbb     0.0016     0.849     0.303     0.283  0.2280 -0.3848  0.8944
              Bcc     0.0047     2.512     0.896     0.838  0.9445 -0.1357 -0.2992
 
              Baa    -0.0061    -3.267    -1.166    -1.090 -0.0912  0.9782 -0.1864
    18 H(1)   Bbb     0.0023     1.213     0.433     0.405 -0.1762  0.1684  0.9698
              Bcc     0.0038     2.054     0.733     0.685  0.9801  0.1213  0.1570
 
              Baa    -0.2633   -35.328   -12.606   -11.784  0.5374  0.8097 -0.2358
    19 C(13)  Bbb    -0.2395   -32.135   -11.466   -10.719  0.7590 -0.5862 -0.2833
              Bcc     0.5027    67.463    24.072    22.503  0.3676  0.0267  0.9296
 
              Baa    -0.0341   -18.209    -6.497    -6.074  0.7540  0.5881 -0.2928
    20 H(1)   Bbb     0.0031     1.654     0.590     0.552  0.3291  0.0477  0.9431
              Bcc     0.0310    16.554     5.907     5.522 -0.5686  0.8074  0.1576
 
              Baa    -0.1663   -22.318    -7.964    -7.445  0.4011 -0.0383  0.9152
    21 C(13)  Bbb     0.0697     9.354     3.338     3.120  0.4868  0.8552 -0.1776
              Bcc     0.0966    12.964     4.626     4.324  0.7759 -0.5168 -0.3617
 
              Baa    -0.0061    -3.254    -1.161    -1.085  0.3995  0.9156 -0.0453
    22 H(1)   Bbb    -0.0050    -2.680    -0.956    -0.894  0.3714 -0.1165  0.9211
              Bcc     0.0111     5.934     2.117     1.979  0.8381 -0.3848 -0.3866
 
              Baa    -0.0089    -1.191    -0.425    -0.397  0.6198  0.1679  0.7666
    23 C(13)  Bbb    -0.0025    -0.341    -0.122    -0.114  0.4777  0.6943 -0.5383
              Bcc     0.0114     1.531     0.546     0.511 -0.6226  0.6998  0.3501
 
              Baa    -0.0068    -3.628    -1.295    -1.210  0.8141 -0.2236  0.5360
    24 H(1)   Bbb     0.0011     0.607     0.217     0.203 -0.2034  0.7547  0.6237
              Bcc     0.0057     3.021     1.078     1.008  0.5440  0.6168 -0.5689
 
              Baa    -0.0044    -2.374    -0.847    -0.792  0.8492  0.0839  0.5214
    25 H(1)   Bbb    -0.0004    -0.210    -0.075    -0.070 -0.3958  0.7548  0.5232
              Bcc     0.0048     2.584     0.922     0.862 -0.3496 -0.6506  0.6742
 
              Baa    -0.0081    -1.090    -0.389    -0.364  0.7742 -0.1461 -0.6159
    26 C(13)  Bbb     0.0026     0.352     0.126     0.118  0.0260  0.9795 -0.1998
              Bcc     0.0055     0.738     0.263     0.246  0.6324  0.1386  0.7621
 
              Baa    -0.0038    -2.054    -0.733    -0.685  0.9801  0.1213  0.1569
    27 H(1)   Bbb    -0.0023    -1.213    -0.433    -0.405 -0.1761  0.1684  0.9699
              Bcc     0.0061     3.267     1.166     1.090 -0.0912  0.9782 -0.1864
 
              Baa    -0.0047    -2.512    -0.896    -0.838  0.9445 -0.1358 -0.2991
    28 H(1)   Bbb    -0.0016    -0.849    -0.303    -0.283  0.2279 -0.3845  0.8945
              Bcc     0.0063     3.361     1.199     1.121  0.2365  0.9131  0.3322
 

 ---------------------------------------------------------------------------------

 No NMR shielding tensors so no spin-rotation constants.
 Leave Link  601 at Tue Aug  4 14:29:43 2020, MaxMem=  6442450944 cpu:               8.4 elap:               0.4
 (Enter /scratch/scicomp/CentOS/7.3.1611/Haswell/software/Gaussian/g16/l9999.exe)
 1\1\GINC-ATLAS-205\SP\UwB97XD\def2TZVP\C12H16\BOCHEN\04-Aug-2020\0\\#p
  uwb97xd guess=mix def2tzvp # scrf=(iefpcm,solvent=Cyclohexane,read) n
 osym 6d 10f\\endo-2 xp-pcm for eta=3\\0,1\C,0,-3.11867,-0.432956,0.247
 226\C,0,-0.509469,-0.167984,-0.858002\H,0,-4.083546,-0.549105,0.726486
 \H,0,0.360157,-0.116106,-1.503444\C,0,1.101339,1.415489,0.68252\C,0,0.
 509469,0.167984,0.858002\H,0,0.540414,2.319583,0.882812\H,0,-0.360157,
 0.116106,1.503444\C,0,1.463271,-0.999883,0.987744\H,0,1.900513,-0.9421
 48,1.990648\H,0,0.926831,-1.947518,0.934189\C,0,2.408817,1.521066,0.11
 6868\H,0,2.824758,2.508464,-0.047474\C,0,3.11867,0.432956,-0.247226\H,
 0,4.083546,0.549105,-0.726486\C,0,2.592153,-0.958523,-0.043594\H,0,2.2
 49577,-1.356847,-1.007017\H,0,3.401074,-1.622064,0.271288\C,0,-1.10133
 9,-1.415489,-0.68252\H,0,-0.540414,-2.319583,-0.882812\C,0,-2.408817,-
 1.521066,-0.116868\H,0,-2.824758,-2.508464,0.047474\C,0,-1.463271,0.99
 9883,-0.987744\H,0,-0.926831,1.947518,-0.934189\H,0,-1.900513,0.942148
 ,-1.990648\C,0,-2.592153,0.958523,0.043594\H,0,-3.401074,1.622064,-0.2
 71288\H,0,-2.249577,1.356847,1.007017\\Version=ES64L-G16RevB.01\HF=-46
 6.7678495\S2=0.517337\S2-1=0.\S2A=0.12657\RMSD=9.433e-09\Dipole=-0.000
 2315,0.000899,-0.0023648\Quadrupole=0.7918266,1.9254459,-2.7172725,-2.
 2922817,-2.3409504,-0.602654\PG=CI [X(C12H16)]\\@


 WHEN ALL ELSE FAILS, LOOK AT THE SCHRODINGER EQUATION.
     -- RUSSELL T. PACK, APRIL 1978
 Job cpu time:       0 days  2 hours 18 minutes 16.0 seconds.
 Elapsed time:       0 days  0 hours  5 minutes 49.1 seconds.
 File lengths (MBytes):  RWF=    627 Int=      0 D2E=      0 Chk=     24 Scr=      1
 Normal termination of Gaussian 16 at Tue Aug  4 14:29:44 2020.
