 Entering Gaussian System, Link 0=g16
 Input=meso-TS_13_2_pcm.com
 Output=meso-TS_13_2_pcm.log
 Initial command:
 /scratch/scicomp/CentOS/7.3.1611/Haswell/software/Gaussian/g16/l1.exe "/scratch/bochen/cyclohexadiene-dimerization/wb97xd-def2tzvp/xp-pcm/meso/Gau-43070.inp" -scrdir="/scratch/bochen/cyclohexadiene-dimerization/wb97xd-def2tzvp/xp-pcm/meso/"
 Entering Link 1 = /scratch/scicomp/CentOS/7.3.1611/Haswell/software/Gaussian/g16/l1.exe PID=     43074.
  
 Copyright (c) 1988-2017, Gaussian, Inc.  All Rights Reserved.
  
 This is part of the Gaussian(R) 16 program.  It is based on
 the Gaussian(R) 09 system (copyright 2009, Gaussian, Inc.),
 the Gaussian(R) 03 system (copyright 2003, Gaussian, Inc.),
 the Gaussian(R) 98 system (copyright 1998, Gaussian, Inc.),
 the Gaussian(R) 94 system (copyright 1995, Gaussian, Inc.),
 the Gaussian 92(TM) system (copyright 1992, Gaussian, Inc.),
 the Gaussian 90(TM) system (copyright 1990, Gaussian, Inc.),
 the Gaussian 88(TM) system (copyright 1988, Gaussian, Inc.),
 the Gaussian 86(TM) system (copyright 1986, Carnegie Mellon
 University), and the Gaussian 82(TM) system (copyright 1983,
 Carnegie Mellon University). Gaussian is a federally registered
 trademark of Gaussian, Inc.
  
 This software contains proprietary and confidential information,
 including trade secrets, belonging to Gaussian, Inc.
  
 This software is provided under written license and may be
 used, copied, transmitted, or stored only in accord with that
 written license.
  
 The following legend is applicable only to US Government
 contracts under FAR:
  
                    RESTRICTED RIGHTS LEGEND
  
 Use, reproduction and disclosure by the US Government is
 subject to restrictions as set forth in subparagraphs (a)
 and (c) of the Commercial Computer Software - Restricted
 Rights clause in FAR 52.227-19.
  
 Gaussian, Inc.
 340 Quinnipiac St., Bldg. 40, Wallingford CT 06492
  
  
 ---------------------------------------------------------------
 Warning -- This program may not be used in any manner that
 competes with the business of Gaussian, Inc. or will provide
 assistance to any competitor of Gaussian, Inc.  The licensee
 of this program is prohibited from giving any competitor of
 Gaussian, Inc. access to this program.  By using this program,
 the user acknowledges that Gaussian, Inc. is engaged in the
 business of creating and licensing software in the field of
 computational chemistry and represents and warrants to the
 licensee that it is not a competitor of Gaussian, Inc. and that
 it will not use this program in any manner prohibited above.
 ---------------------------------------------------------------
  

 Cite this work as:
 Gaussian 16, Revision B.01,
 M. J. Frisch, G. W. Trucks, H. B. Schlegel, G. E. Scuseria, 
 M. A. Robb, J. R. Cheeseman, G. Scalmani, V. Barone, 
 G. A. Petersson, H. Nakatsuji, X. Li, M. Caricato, A. V. Marenich, 
 J. Bloino, B. G. Janesko, R. Gomperts, B. Mennucci, H. P. Hratchian, 
 J. V. Ortiz, A. F. Izmaylov, J. L. Sonnenberg, D. Williams-Young, 
 F. Ding, F. Lipparini, F. Egidi, J. Goings, B. Peng, A. Petrone, 
 T. Henderson, D. Ranasinghe, V. G. Zakrzewski, J. Gao, N. Rega, 
 G. Zheng, W. Liang, M. Hada, M. Ehara, K. Toyota, R. Fukuda, 
 J. Hasegawa, M. Ishida, T. Nakajima, Y. Honda, O. Kitao, H. Nakai, 
 T. Vreven, K. Throssell, J. A. Montgomery, Jr., J. E. Peralta, 
 F. Ogliaro, M. J. Bearpark, J. J. Heyd, E. N. Brothers, K. N. Kudin, 
 V. N. Staroverov, T. A. Keith, R. Kobayashi, J. Normand, 
 K. Raghavachari, A. P. Rendell, J. C. Burant, S. S. Iyengar, 
 J. Tomasi, M. Cossi, J. M. Millam, M. Klene, C. Adamo, R. Cammi, 
 J. W. Ochterski, R. L. Martin, K. Morokuma, O. Farkas, 
 J. B. Foresman, and D. J. Fox, Gaussian, Inc., Wallingford CT, 2016.
 
 ******************************************
 Gaussian 16:  ES64L-G16RevB.01 20-Dec-2017
                 3-Aug-2020 
 ******************************************
 %nproc=24
 Will use up to   24 processors via shared memory.
 %mem=48GB
 ----------------------------------------------------------------------
 #p uwb97xd guess=mix def2tzvp # scrf=(iefpcm,solvent=Cyclohexane,read)
  nosym 6d 10f
 ----------------------------------------------------------------------
 1/38=1,40=2,172=1/1;
 2/12=2,15=1,17=6,18=5,40=1/2;
 3/5=44,7=101,8=22,11=2,25=1,30=1,70=2203,72=17,74=-58,116=2/1,2,3;
 4/13=-1/1;
 5/5=2,38=5,53=17/2;
 6/7=2,8=2,9=2,10=2,28=1/1;
 99/5=1,9=1/99;
 Leave Link    1 at Mon Aug  3 15:48:51 2020, MaxMem=  6442450944 cpu:               1.6 elap:               0.1
 (Enter /scratch/scicomp/CentOS/7.3.1611/Haswell/software/Gaussian/g16/l101.exe)
 -----------------------
 endo-2 xp-pcm for eta=3
 -----------------------
 Symbolic Z-matrix:
 Charge =  0 Multiplicity = 1
 6                    -3.11929  -0.43709   0.24729 
 6                    -0.56937  -0.20248  -0.95934 
 1                    -4.08343  -0.54976   0.72938 
 1                     0.38039  -0.1179   -1.4683 
 6                     1.09108   1.40555   0.69213 
 6                     0.56937   0.20248   0.95934 
 1                     0.51715   2.30851   0.85671 
 1                    -0.38039   0.1179    1.4683 
 6                     1.46965  -0.99958   0.9933 
 1                     1.92056  -0.98803   1.99319 
 1                     0.90648  -1.92861   0.92123 
 6                     2.41974   1.51599   0.11191 
 1                     2.82852   2.50515  -0.05752 
 6                     3.11929   0.43709  -0.24729 
 1                     4.08343   0.54976  -0.72938 
 6                     2.59153  -0.95749  -0.04532 
 1                     2.25157  -1.35467  -1.0098 
 1                     3.40048  -1.61987   0.27023 
 6                    -1.09108  -1.40555  -0.69213 
 1                    -0.51715  -2.30851  -0.85671 
 6                    -2.41974  -1.51599  -0.11191 
 1                    -2.82852  -2.50515   0.05752 
 6                    -1.46965   0.99958  -0.9933 
 1                    -0.90648   1.92861  -0.92123 
 1                    -1.92056   0.98803  -1.99319 
 6                    -2.59153   0.95749   0.04532 
 1                    -3.40048   1.61987  -0.27023 
 1                    -2.25157   1.35467   1.0098 
 
 ITRead=  0  0  0  0  0  0  0  0  0  0  0  0  0  0  0  0  0  0  0  0
 ITRead=  0  0  0  0  0  0  0  0
 MicOpt= -1 -1 -1 -1 -1 -1 -1 -1 -1 -1 -1 -1 -1 -1 -1 -1 -1 -1 -1 -1
 MicOpt= -1 -1 -1 -1 -1 -1 -1 -1
 NAtoms=     28 NQM=       28 NQMF=       0 NMMI=      0 NMMIF=      0
                NMic=       0 NMicF=      0.
                    Isotopes and Nuclear Properties:
 (Nuclear quadrupole moments (NQMom) in fm**2, nuclear magnetic moments (NMagM)
  in nuclear magnetons)

  Atom         1           2           3           4           5           6           7           8           9          10
 IAtWgt=          12          12           1           1          12          12           1           1          12           1
 AtmWgt=  12.0000000  12.0000000   1.0078250   1.0078250  12.0000000  12.0000000   1.0078250   1.0078250  12.0000000   1.0078250
 NucSpn=           0           0           1           1           0           0           1           1           0           1
 AtZEff=  -0.0000000  -0.0000000  -0.0000000  -0.0000000  -0.0000000  -0.0000000  -0.0000000  -0.0000000  -0.0000000  -0.0000000
 NQMom=    0.0000000   0.0000000   0.0000000   0.0000000   0.0000000   0.0000000   0.0000000   0.0000000   0.0000000   0.0000000
 NMagM=    0.0000000   0.0000000   2.7928460   2.7928460   0.0000000   0.0000000   2.7928460   2.7928460   0.0000000   2.7928460
 AtZNuc=   6.0000000   6.0000000   1.0000000   1.0000000   6.0000000   6.0000000   1.0000000   1.0000000   6.0000000   1.0000000

  Atom        11          12          13          14          15          16          17          18          19          20
 IAtWgt=           1          12           1          12           1          12           1           1          12           1
 AtmWgt=   1.0078250  12.0000000   1.0078250  12.0000000   1.0078250  12.0000000   1.0078250   1.0078250  12.0000000   1.0078250
 NucSpn=           1           0           1           0           1           0           1           1           0           1
 AtZEff=  -0.0000000  -0.0000000  -0.0000000  -0.0000000  -0.0000000  -0.0000000  -0.0000000  -0.0000000  -0.0000000  -0.0000000
 NQMom=    0.0000000   0.0000000   0.0000000   0.0000000   0.0000000   0.0000000   0.0000000   0.0000000   0.0000000   0.0000000
 NMagM=    2.7928460   0.0000000   2.7928460   0.0000000   2.7928460   0.0000000   2.7928460   2.7928460   0.0000000   2.7928460
 AtZNuc=   1.0000000   6.0000000   1.0000000   6.0000000   1.0000000   6.0000000   1.0000000   1.0000000   6.0000000   1.0000000

  Atom        21          22          23          24          25          26          27          28
 IAtWgt=          12           1          12           1           1          12           1           1
 AtmWgt=  12.0000000   1.0078250  12.0000000   1.0078250   1.0078250  12.0000000   1.0078250   1.0078250
 NucSpn=           0           1           0           1           1           0           1           1
 AtZEff=  -0.0000000  -0.0000000  -0.0000000  -0.0000000  -0.0000000  -0.0000000  -0.0000000  -0.0000000
 NQMom=    0.0000000   0.0000000   0.0000000   0.0000000   0.0000000   0.0000000   0.0000000   0.0000000
 NMagM=    0.0000000   2.7928460   0.0000000   2.7928460   2.7928460   0.0000000   2.7928460   2.7928460
 AtZNuc=   6.0000000   1.0000000   6.0000000   1.0000000   1.0000000   6.0000000   1.0000000   1.0000000
 Leave Link  101 at Mon Aug  3 15:48:51 2020, MaxMem=  6442450944 cpu:               2.4 elap:               0.1
 (Enter /scratch/scicomp/CentOS/7.3.1611/Haswell/software/Gaussian/g16/l202.exe)
                          Input orientation:                          
 ---------------------------------------------------------------------
 Center     Atomic      Atomic             Coordinates (Angstroms)
 Number     Number       Type             X           Y           Z
 ---------------------------------------------------------------------
      1          6           0       -3.119292   -0.437085    0.247292
      2          6           0       -0.569370   -0.202476   -0.959340
      3          1           0       -4.083426   -0.549760    0.729383
      4          1           0        0.380387   -0.117904   -1.468298
      5          6           0        1.091078    1.405545    0.692127
      6          6           0        0.569370    0.202476    0.959340
      7          1           0        0.517151    2.308513    0.856707
      8          1           0       -0.380387    0.117904    1.468298
      9          6           0        1.469648   -0.999582    0.993300
     10          1           0        1.920562   -0.988028    1.993185
     11          1           0        0.906483   -1.928611    0.921226
     12          6           0        2.419739    1.515988    0.111913
     13          1           0        2.828521    2.505149   -0.057522
     14          6           0        3.119292    0.437085   -0.247292
     15          1           0        4.083426    0.549760   -0.729383
     16          6           0        2.591527   -0.957486   -0.045320
     17          1           0        2.251568   -1.354671   -1.009800
     18          1           0        3.400483   -1.619871    0.270232
     19          6           0       -1.091078   -1.405545   -0.692127
     20          1           0       -0.517151   -2.308513   -0.856707
     21          6           0       -2.419738   -1.515988   -0.111913
     22          1           0       -2.828521   -2.505149    0.057522
     23          6           0       -1.469648    0.999582   -0.993300
     24          1           0       -0.906482    1.928611   -0.921226
     25          1           0       -1.920562    0.988028   -1.993185
     26          6           0       -2.591527    0.957486    0.045320
     27          1           0       -3.400483    1.619871   -0.270232
     28          1           0       -2.251568    1.354671    1.009800
 ---------------------------------------------------------------------
                    Distance matrix (angstroms):
                    1          2          3          4          5
     1  C    0.000000
     2  C    2.830743   0.000000
     3  H    1.083818   3.914202   0.000000
     4  H    3.910611   1.080846   4.994189   0.000000
     5  C    4.617400   2.840803   5.531735   2.737410   0.000000
     6  C    3.810811   2.267608   4.718819   2.455969   1.338266
     7  H    4.597109   3.283842   5.417679   3.363310   1.082511
     8  H    3.049667   2.455969   3.834615   3.042693   2.103728
     9  C    4.683087   2.933560   5.577510   2.832545   2.453295
    10  H    5.362071   3.941352   6.151191   3.887302   2.847804
    11  H    4.345768   2.948595   5.180466   3.043889   3.347112
    12  C    5.874835   3.610467   6.851258   3.053789   1.454024
    13  H    6.642750   4.437361   7.597809   3.855393   2.188564
    14  C    6.318917   3.810811   7.335319   3.049667   2.435996
    15  H    7.335319   4.718819   8.368657   3.834615   3.421579
    16  C    5.741942   3.375906   6.732117   2.760236   2.894666
    17  H    5.591814   3.047588   6.618519   2.289352   3.444138
    18  H    6.626234   4.390967   7.573959   3.794650   3.829424
    19  C    2.435996   1.338266   3.421579   2.103728   3.818402
    20  H    3.390014   2.109183   4.281029   2.445074   4.333534
    21  C    1.335079   2.422253   2.099817   3.411029   4.637636
    22  H    2.097010   3.382318   2.418621   4.280672   5.573106
    23  C    2.514837   1.502197   3.492840   2.212923   3.092376
    24  H    3.443614   2.157922   4.354286   2.478617   2.620449
    25  H    2.913355   2.076501   3.801993   2.606330   4.056501
    26  C    1.504712   2.538498   2.228339   3.504251   3.765726
    27  H    2.139619   3.436716   2.484540   4.330150   4.598499
    28  H    2.131843   3.021921   2.657291   3.903413   3.358093
                    6          7          8          9         10
     6  C    0.000000
     7  H    2.109183   0.000000
     8  H    1.080846   2.445074   0.000000
     9  C    1.502197   3.445200   2.212923   0.000000
    10  H    2.076501   3.758767   2.606330   1.096917   0.000000
    11  H    2.157923   4.255463   2.478618   1.088781   1.749900
    12  C    2.422253   2.191496   3.411030   2.829772   3.171507
    13  H    3.382318   2.493374   4.280672   3.903063   4.151153
    14  C    2.830743   3.390014   3.910611   2.514837   2.913355
    15  H    3.914202   4.281029   4.994189   3.492840   3.801993
    16  C    2.538498   3.972838   3.504251   1.529417   2.146306
    17  H    3.021921   4.462171   3.903413   2.179426   3.043339
    18  H    3.436716   4.908132   4.330150   2.153070   2.357532
    19  C    2.840803   4.333534   2.737410   3.092376   4.056501
    20  H    3.283842   5.032146   3.363310   3.013834   3.975929
    21  C    3.610466   4.918369   3.053788   4.076211   4.852668
    22  H    4.437361   5.916381   3.855393   4.649373   5.348106
    23  C    2.933560   3.013834   2.832545   4.072186   4.935910
    24  H    2.948595   2.309135   3.043889   4.229151   4.999275
    25  H    3.941352   3.975929   3.887302   4.935910   5.877940
    26  C    3.375906   3.485327   2.760236   4.606726   5.285655
    27  H    4.390967   4.134256   3.794650   5.672409   6.343320
    28  H    3.047588   2.932415   2.289352   4.403434   4.884870
                   11         12         13         14         15
    11  H    0.000000
    12  C    3.848401   0.000000
    13  H    4.930558   1.083628   0.000000
    14  C    3.443614   1.335078   2.097010   0.000000
    15  H    4.354285   2.099817   2.418621   1.083818   0.000000
    16  C    2.171789   2.484413   3.470757   1.504712   2.228339
    17  H    2.422297   3.086617   4.017203   2.131843   2.657291
    18  H    2.595987   3.289458   4.177362   2.139619   2.484540
    19  C    2.620450   4.637636   5.573106   4.617400   5.531735
    20  H    2.309135   4.918369   5.916381   4.597109   5.417679
    21  C    3.507332   5.715200   6.611862   5.874834   6.851257
    22  H    3.876678   6.611863   7.557675   6.642750   7.597809
    23  C    4.229152   4.076212   4.649373   4.683087   5.577510
    24  H    4.643235   3.507332   3.876677   4.345767   5.180465
    25  H    4.999276   4.852669   5.348106   5.362071   6.151191
    26  C    4.618749   5.042732   5.637620   5.741942   6.732117
    27  H    5.706247   5.833679   6.295193   6.626234   7.573959
    28  H    4.556432   4.759552   5.316962   5.591814   6.618519
                   16         17         18         19         20
    16  C    0.000000
    17  H    1.097064   0.000000
    18  H    1.092125   1.740350   0.000000
    19  C    3.765726   3.358093   4.598499   0.000000
    20  H    3.485327   2.932415   4.134256   1.082511   0.000000
    21  C    5.042731   4.759551   5.833678   1.454023   2.191495
    22  H    5.637620   5.316962   6.295193   2.188564   2.493374
    23  C    4.606726   4.403434   5.672409   2.453295   3.445200
    24  H    4.618748   4.556431   5.706246   3.347112   4.255463
    25  H    5.285655   4.884870   6.343320   2.847804   3.758767
    26  C    5.526245   5.469453   6.526679   2.894666   3.972838
    27  H    6.526679   6.429661   7.552560   3.829424   4.908132
    28  H    5.469453   5.630058   6.429661   3.444138   4.462171
                   21         22         23         24         25
    21  C    0.000000
    22  H    1.083629   0.000000
    23  C    2.829771   3.903063   0.000000
    24  H    3.848401   4.930559   1.088782   0.000000
    25  H    3.171507   4.151153   1.096917   1.749900   0.000000
    26  C    2.484413   3.470757   1.529417   2.171790   2.146306
    27  H    3.289459   4.177362   2.153070   2.595988   2.357532
    28  H    3.086617   4.017203   2.179426   2.422297   3.043339
                   26         27         28
    26  C    0.000000
    27  H    1.092125   0.000000
    28  H    1.097064   1.740350   0.000000
 Symmetry turned off by external request.
 Stoichiometry    C12H16
 Framework group  CI[X(C12H16)]
 Deg. of freedom    39
 Full point group                 CI      NOp   2
 Rotational constants (GHZ):           1.9208592           0.6303219           0.5509181
 Leave Link  202 at Mon Aug  3 15:48:51 2020, MaxMem=  6442450944 cpu:               0.3 elap:               0.0
 (Enter /scratch/scicomp/CentOS/7.3.1611/Haswell/software/Gaussian/g16/l301.exe)
 Standard basis: def2TZVP (6D, 10F)
 Ernie: Thresh=  0.10000D-02 Tol=  0.10000D-05 Strict=F.
   528 basis functions,   740 primitive gaussians,   528 cartesian basis functions
    44 alpha electrons       44 beta electrons
       nuclear repulsion energy       690.1149952169 Hartrees.
 IExCor= 4639 DFT=T Ex+Corr=wB97XD ExCW=0 ScaHFX=  1.000000
 ScaDFX=  1.000000  1.000000  1.000000  1.000000 ScalE2=  1.000000  1.000000
 IRadAn=      5 IRanWt=     -1 IRanGd=            0 ICorTp=0 IEmpDi=121
 HFx  wShort=  0.000000 wLong=  0.200000 cFull=  0.222036 cShort=  0.000000 cLong=  0.777964
 DFx  wShort=  0.000000 wLong=  0.200000 cFull=  0.000000 cShort=  0.000000 cLong=  1.000000
 NAtoms=   28 NActive=   28 NUniq=   28 SFac= 1.00D+00 NAtFMM=   60 NAOKFM=F Big=F
 Integral buffers will be    131072 words long.
 Raffenetti 2 integral format.
 Two-electron integral symmetry is turned off.
 R6Disp:  Grimme-D2 Dispersion energy=       -0.0229706393 Hartrees.
 Nuclear repulsion after empirical dispersion term =      690.0920245776 Hartrees.
 Using the following non-standard input for PCM:
 norep pcmdoc geomview  nodis nocav g03defaults tsare=0.075
 Warning! Using old PCM defaults because the g03defaults keyword was found.
 These settings can be overridden by following keywords.
 nsfe=28
 NVESolv=36  SolvMW=84.1595   Rsolv=2.815
 eps=2.0165 RhoS=0.7781
 --- end of non-standard input.
 Reading user-defined spheres from input:
 ISph  on   Nord    Re0     Alpha      Xe            Ye            Ze
 --- end of user-defined spheres data.
 ------------------------------------------------------------------------------
 Polarizable Continuum Model (PCM)
 =================================
 Model                : PCM.
 Atomic radii         : UA0 (Simple United Atom Topological Model).
 Polarization charges : Total charges.
 Charge compensation  : None.
 Solution method      : On-the-fly selection.
 Cavity type          : SES (Solvent Excluding Surface) (Alpha=1.000).
 Cavity algorithm     : GePol (RMin=0.200 OFac=0.890).
                        User-defined sphere list used, NSphG=   28.
                        Tesserae with average area of 0.075 Ang**2.
                        Smoothing algorithm: None.
                        Polarization charges: point-like.
                        Self-potential: constant (ISelfS= 1).
                        Self-field    : global E.n sum rule (ISelfD= 3).
 Solvent              : CycloHexane, Eps=   2.016500 Eps(inf)=   2.035188
                        RSolv=   2.815000 Ang.
 ------------------------------------------------------------------------------
 GePol: Number of generator spheres                  =      28
 GePol: Total number of spheres                      =     182
 GePol: Number of exposed spheres                    =     132 ( 72.53%)
 GePol: Number of tesserae                           =    4655
 GePol: Average area of tesserae                     =       0.05 Ang**2
 GePol: Minimum area of tessera                      =   0.10D-02 Ang**2
 GePol: Maximum area of tessera                      =    0.12698 Ang**2
 GePol: Number of small tesserae                     =       0
 GePol: Fraction of small tesserae (<1% of avg)      =       0.00%
 GePol: Total count of vertices                      =   16512
 GePol: Maximum number of vertices in a tessera      =       7
 GePol: Cavity surface area                          =    218.298 Ang**2
 GePol: Cavity volume                                =    246.239 Ang**3
 Leave Link  301 at Mon Aug  3 15:48:51 2020, MaxMem=  6442450944 cpu:               7.6 elap:               0.4
 (Enter /scratch/scicomp/CentOS/7.3.1611/Haswell/software/Gaussian/g16/l302.exe)
 NPDir=0 NMtPBC=     1 NCelOv=     1 NCel=       1 NClECP=     1 NCelD=      1
         NCelK=      1 NCelE2=     1 NClLst=     1 CellRange=     0.0.
 One-electron integrals computed using PRISM.
   1 Symmetry operations used in ECPInt.
 ECPInt:  NShTT=   19306 NPrTT=   56928 LenC2=   18518 LenP2D=   42248.
 LDataN:  DoStor=T MaxTD1= 6 Len=  172
 NBasis=   528 RedAO= T EigKep=  2.17D-05  NBF=   528
 NBsUse=   528 1.00D-06 EigRej= -1.00D+00 NBFU=   528
 Precomputing XC quadrature grid using
 IXCGrd= 4 IRadAn=           5 IRanWt=          -1 IRanGd=           0 AccXCQ= 0.00D+00.
 Generated NRdTot=       0 NPtTot=           0 NUsed=           0 NTot=          32
 NSgBfM=   526   526   526   526   526 MxSgAt=    28 MxSgA2=    28.
 Leave Link  302 at Mon Aug  3 15:48:52 2020, MaxMem=  6442450944 cpu:              12.7 elap:               0.6
 (Enter /scratch/scicomp/CentOS/7.3.1611/Haswell/software/Gaussian/g16/l303.exe)
 DipDrv:  MaxL=1.
 Leave Link  303 at Mon Aug  3 15:48:52 2020, MaxMem=  6442450944 cpu:               1.5 elap:               0.1
 (Enter /scratch/scicomp/CentOS/7.3.1611/Haswell/software/Gaussian/g16/l401.exe)
 ExpMin= 9.52D-02 ExpMax= 1.36D+04 ExpMxC= 4.63D+02 IAcc=3 IRadAn=         5 AccDes= 0.00D+00
 Harris functional with IExCor= 4639 and IRadAn=       5 diagonalized for initial guess.
 HarFok:  IExCor= 4639 AccDes= 0.00D+00 IRadAn=         5 IDoV= 1 UseB2=F ITyADJ=14
 ICtDFT=  3500011 ScaDFX=  1.000000  1.000000  1.000000  1.000000
 FoFCou: FMM=F IPFlag=           0 FMFlag=      100000 FMFlg1=           0
         NFxFlg=           0 DoJE=T BraDBF=F KetDBF=T FulRan=T
         wScrn=  0.000000 ICntrl=       500 IOpCl=  0 I1Cent=   200000004 NGrid=           0
         NMat0=    1 NMatS0=      1 NMatT0=    0 NMatD0=    1 NMtDS0=    0 NMtDT0=    0
 Symmetry not used in FoFCou.
 Harris En= -444.627486357804    
 JPrj=0 DoOrth=F DoCkMO=T.
 Mixing orbitals, IMix= 1 IMixAn=  0 NRI=1 NE=   44 Coef=  7.07106781D-01  7.07106781D-01
 Mixing orbitals, IMix= 1 IMixAn=  0 NRI=1 NE=   44 Coef= -7.07106781D-01  7.07106781D-01
 Initial guess <Sx>= 0.0000 <Sy>= 0.0000 <Sz>= 0.0000 <S**2>= 1.0000 S= 0.6180
 Leave Link  401 at Mon Aug  3 15:48:54 2020, MaxMem=  6442450944 cpu:              49.0 elap:               2.1
 (Enter /scratch/scicomp/CentOS/7.3.1611/Haswell/software/Gaussian/g16/l502.exe)
 Two-electron integral symmetry not used.
 UHF open shell SCF:
 Using DIIS extrapolation, IDIIS=  1040.
 NGot=  6442450944 LenX=  6441877030 LenY=  6441597718
 Requested convergence on RMS density matrix=1.00D-08 within 128 cycles.
 Requested convergence on MAX density matrix=1.00D-06.
 Requested convergence on             energy=1.00D-06.
 No special actions if energy rises.
 Fock matrices will be formed incrementally for  20 cycles.

 Cycle   1  Pass 1  IDiag  1:
 FoFJK:  IHMeth= 1 ICntrl=       0 DoSepK=T KAlg= 0 I1Cent=           0 FoldK=F
 IRaf=         1 NMat=       1 IRICut=       1 DoRegI=T DoRafI=F ISym2E= 0 IDoP0=0 IntGTp=1.
 FoFCou: FMM=F IPFlag=           0 FMFlag=      100000 FMFlg1=           0
         NFxFlg=           0 DoJE=T BraDBF=F KetDBF=F FulRan=T
         wScrn=  0.000000 ICntrl=       500 IOpCl=  0 I1Cent=           0 NGrid=           0
         NMat0=    1 NMatS0=      1 NMatT0=    0 NMatD0=    1 NMtDS0=    0 NMtDT0=    0
 Symmetry not used in FoFCou.
 Inv3:  Mode=1 IEnd=    65007075.
 Iteration    1 A*A^-1 deviation from unit magnitude is 4.44D-15 for   2943.
 Iteration    1 A*A^-1 deviation from orthogonality  is 2.00D-15 for   2589   1998.
 Iteration    1 A^-1*A deviation from unit magnitude is 4.22D-15 for   2943.
 Iteration    1 A^-1*A deviation from orthogonality  is 2.59D-15 for   1937    491.
 E= -466.604156945390    
 DIIS: error= 4.95D-02 at cycle   1 NSaved=   1.
 NSaved= 1 IEnMin= 1 EnMin= -466.604156945390     IErMin= 1 ErrMin= 4.95D-02
 ErrMax= 4.95D-02  0.00D+00 EMaxC= 1.00D-01 BMatC= 4.10D+00 BMatP= 4.10D+00
 IDIUse=3 WtCom= 5.05D-01 WtEn= 4.95D-01
 Coeff-Com:  0.100D+01
 Coeff-En:   0.100D+01
 Coeff:      0.100D+01
 Gap=     0.195 Goal=   None    Shift=    0.000
 Gap=     0.195 Goal=   None    Shift=    0.000
 GapD=    0.195 DampG=1.000 DampE=0.500 DampFc=0.5000 IDamp=-1.
 Damping current iteration by 5.00D-01
 RMSDP=1.55D-03 MaxDP=9.17D-02              OVMax= 2.61D-01

 Cycle   2  Pass 1  IDiag  1:
 RMSU=  7.55D-04    CP:  9.71D-01
 E= -466.697297813689     Delta-E=       -0.093140868299 Rises=F Damp=T
 DIIS: error= 2.35D-02 at cycle   2 NSaved=   2.
 NSaved= 2 IEnMin= 2 EnMin= -466.697297813689     IErMin= 2 ErrMin= 2.35D-02
 ErrMax= 2.35D-02  0.00D+00 EMaxC= 1.00D-01 BMatC= 9.29D-01 BMatP= 4.10D+00
 IDIUse=3 WtCom= 7.65D-01 WtEn= 2.35D-01
 Coeff-Com: -0.866D+00 0.187D+01
 Coeff-En:   0.000D+00 0.100D+01
 Coeff:     -0.662D+00 0.166D+01
 Gap=     0.248 Goal=   None    Shift=    0.000
 Gap=     0.248 Goal=   None    Shift=    0.000
 RMSDP=1.08D-03 MaxDP=4.86D-02 DE=-9.31D-02 OVMax= 1.22D-01

 Cycle   3  Pass 1  IDiag  1:
 RMSU=  6.41D-04    CP:  9.29D-01  2.10D+00
 E= -466.810066394616     Delta-E=       -0.112768580927 Rises=F Damp=F
 DIIS: error= 6.79D-03 at cycle   3 NSaved=   3.
 NSaved= 3 IEnMin= 3 EnMin= -466.810066394616     IErMin= 3 ErrMin= 6.79D-03
 ErrMax= 6.79D-03  0.00D+00 EMaxC= 1.00D-01 BMatC= 2.46D-02 BMatP= 9.29D-01
 IDIUse=3 WtCom= 9.32D-01 WtEn= 6.79D-02
 Coeff-Com: -0.328D+00 0.704D+00 0.624D+00
 Coeff-En:   0.000D+00 0.000D+00 0.100D+01
 Coeff:     -0.306D+00 0.657D+00 0.649D+00
 Gap=     0.262 Goal=   None    Shift=    0.000
 Gap=     0.262 Goal=   None    Shift=    0.000
 RMSDP=2.32D-04 MaxDP=1.46D-02 DE=-1.13D-01 OVMax= 6.19D-02

 Cycle   4  Pass 1  IDiag  1:
 RMSU=  2.10D-04    CP:  9.22D-01  2.21D+00  9.60D-01
 E= -466.820515891675     Delta-E=       -0.010449497059 Rises=F Damp=F
 DIIS: error= 4.89D-03 at cycle   4 NSaved=   4.
 NSaved= 4 IEnMin= 4 EnMin= -466.820515891675     IErMin= 4 ErrMin= 4.89D-03
 ErrMax= 4.89D-03  0.00D+00 EMaxC= 1.00D-01 BMatC= 2.01D-03 BMatP= 2.46D-02
 IDIUse=3 WtCom= 9.51D-01 WtEn= 4.89D-02
 Coeff-Com:  0.928D-01-0.199D+00-0.236D-01 0.113D+01
 Coeff-En:   0.000D+00 0.000D+00 0.000D+00 0.100D+01
 Coeff:      0.882D-01-0.189D+00-0.225D-01 0.112D+01
 Gap=     0.270 Goal=   None    Shift=    0.000
 Gap=     0.270 Goal=   None    Shift=    0.000
 RMSDP=2.20D-04 MaxDP=9.62D-03 DE=-1.04D-02 OVMax= 7.70D-02

 Cycle   5  Pass 1  IDiag  1:
 RMSU=  8.95D-05    CP:  9.15D-01  2.26D+00  1.18D+00  1.61D+00
 E= -466.825217114386     Delta-E=       -0.004701222710 Rises=F Damp=F
 DIIS: error= 2.94D-03 at cycle   5 NSaved=   5.
 NSaved= 5 IEnMin= 5 EnMin= -466.825217114386     IErMin= 5 ErrMin= 2.94D-03
 ErrMax= 2.94D-03  0.00D+00 EMaxC= 1.00D-01 BMatC= 1.05D-03 BMatP= 2.01D-03
 IDIUse=3 WtCom= 9.71D-01 WtEn= 2.94D-02
 Coeff-Com:  0.913D-01-0.196D+00-0.118D+00 0.466D+00 0.757D+00
 Coeff-En:   0.000D+00 0.000D+00 0.000D+00 0.000D+00 0.100D+01
 Coeff:      0.886D-01-0.190D+00-0.115D+00 0.453D+00 0.764D+00
 Gap=     0.274 Goal=   None    Shift=    0.000
 Gap=     0.274 Goal=   None    Shift=    0.000
 RMSDP=1.15D-04 MaxDP=5.75D-03 DE=-4.70D-03 OVMax= 4.22D-02

 Cycle   6  Pass 1  IDiag  1:
 RMSU=  3.86D-05    CP:  9.12D-01  2.27D+00  1.25D+00  2.02D+00  1.48D+00
 E= -466.827120198511     Delta-E=       -0.001903084126 Rises=F Damp=F
 DIIS: error= 2.04D-03 at cycle   6 NSaved=   6.
 NSaved= 6 IEnMin= 6 EnMin= -466.827120198511     IErMin= 6 ErrMin= 2.04D-03
 ErrMax= 2.04D-03  0.00D+00 EMaxC= 1.00D-01 BMatC= 5.11D-04 BMatP= 1.05D-03
 IDIUse=3 WtCom= 9.80D-01 WtEn= 2.04D-02
 Coeff-Com: -0.550D-01 0.118D+00 0.460D-01-0.425D+00 0.340D-01 0.128D+01
 Coeff-En:   0.000D+00 0.000D+00 0.000D+00 0.000D+00 0.000D+00 0.100D+01
 Coeff:     -0.539D-01 0.116D+00 0.451D-01-0.416D+00 0.333D-01 0.128D+01
 Gap=     0.271 Goal=   None    Shift=    0.000
 Gap=     0.271 Goal=   None    Shift=    0.000
 RMSDP=1.16D-04 MaxDP=4.99D-03 DE=-1.90D-03 OVMax= 4.50D-02

 Cycle   7  Pass 1  IDiag  1:
 RMSU=  2.99D-05    CP:  9.09D-01  2.28D+00  1.31D+00  2.37D+00  2.22D+00
                    CP:  1.90D+00
 E= -466.828768592747     Delta-E=       -0.001648394236 Rises=F Damp=F
 DIIS: error= 1.41D-03 at cycle   7 NSaved=   7.
 NSaved= 7 IEnMin= 7 EnMin= -466.828768592747     IErMin= 7 ErrMin= 1.41D-03
 ErrMax= 1.41D-03  0.00D+00 EMaxC= 1.00D-01 BMatC= 3.06D-04 BMatP= 5.11D-04
 IDIUse=3 WtCom= 9.86D-01 WtEn= 1.41D-02
 Coeff-Com: -0.166D-01 0.362D-01 0.444D-01 0.122D+00-0.406D+00-0.956D+00
 Coeff-Com:  0.218D+01
 Coeff-En:   0.000D+00 0.000D+00 0.000D+00 0.000D+00 0.000D+00 0.000D+00
 Coeff-En:   0.100D+01
 Coeff:     -0.164D-01 0.357D-01 0.437D-01 0.121D+00-0.400D+00-0.943D+00
 Coeff:      0.216D+01
 Gap=     0.269 Goal=   None    Shift=    0.000
 Gap=     0.269 Goal=   None    Shift=    0.000
 RMSDP=1.40D-04 MaxDP=5.75D-03 DE=-1.65D-03 OVMax= 5.67D-02

 Cycle   8  Pass 1  IDiag  1:
 RMSU=  2.98D-05    CP:  9.06D-01  2.28D+00  1.35D+00  2.73D+00  3.00D+00
                    CP:  3.00D+00  2.85D+00
 E= -466.830410952027     Delta-E=       -0.001642359280 Rises=F Damp=F
 DIIS: error= 9.22D-04 at cycle   8 NSaved=   8.
 NSaved= 8 IEnMin= 8 EnMin= -466.830410952027     IErMin= 8 ErrMin= 9.22D-04
 ErrMax= 9.22D-04  0.00D+00 EMaxC= 1.00D-01 BMatC= 1.56D-04 BMatP= 3.06D-04
 IDIUse=3 WtCom= 9.91D-01 WtEn= 9.22D-03
 Coeff-Com:  0.461D-01-0.993D-01-0.267D-01 0.463D+00-0.884D-01-0.142D+01
 Coeff-Com:  0.504D+00 0.162D+01
 Coeff-En:   0.000D+00 0.000D+00 0.000D+00 0.000D+00 0.000D+00 0.000D+00
 Coeff-En:   0.000D+00 0.100D+01
 Coeff:      0.457D-01-0.983D-01-0.264D-01 0.459D+00-0.876D-01-0.140D+01
 Coeff:      0.500D+00 0.161D+01
 Gap=     0.269 Goal=   None    Shift=    0.000
 Gap=     0.269 Goal=   None    Shift=    0.000
 RMSDP=1.52D-04 MaxDP=6.73D-03 DE=-1.64D-03 OVMax= 6.24D-02

 Cycle   9  Pass 1  IDiag  1:
 RMSU=  9.98D-05    CP:  9.02D-01  2.28D+00  1.40D+00  3.00D+00  3.00D+00
                    CP:  3.00D+00  3.00D+00  3.00D+00
 E= -466.831528682996     Delta-E=       -0.001117730969 Rises=F Damp=F
 DIIS: error= 5.17D-04 at cycle   9 NSaved=   9.
 NSaved= 9 IEnMin= 9 EnMin= -466.831528682996     IErMin= 9 ErrMin= 5.17D-04
 ErrMax= 5.17D-04  0.00D+00 EMaxC= 1.00D-01 BMatC= 5.82D-05 BMatP= 1.56D-04
 IDIUse=3 WtCom= 9.95D-01 WtEn= 5.17D-03
 Coeff-Com:  0.354D-01-0.762D-01-0.337D-01 0.238D+00 0.961D-01-0.452D+00
 Coeff-Com: -0.504D+00 0.791D+00 0.906D+00
 Coeff-En:   0.000D+00 0.000D+00 0.000D+00 0.000D+00 0.000D+00 0.000D+00
 Coeff-En:   0.000D+00 0.000D+00 0.100D+01
 Coeff:      0.352D-01-0.759D-01-0.335D-01 0.237D+00 0.956D-01-0.450D+00
 Coeff:     -0.501D+00 0.787D+00 0.906D+00
 Gap=     0.270 Goal=   None    Shift=    0.000
 Gap=     0.270 Goal=   None    Shift=    0.000
 RMSDP=7.77D-05 MaxDP=3.45D-03 DE=-1.12D-03 OVMax= 3.23D-02

 Cycle  10  Pass 1  IDiag  1:
 RMSU=  4.32D-05    CP:  9.01D-01  2.28D+00  1.43D+00  3.00D+00  3.00D+00
                    CP:  3.00D+00  3.00D+00  3.00D+00  1.62D+00
 E= -466.831832337246     Delta-E=       -0.000303654250 Rises=F Damp=F
 DIIS: error= 3.01D-04 at cycle  10 NSaved=  10.
 NSaved=10 IEnMin=10 EnMin= -466.831832337246     IErMin=10 ErrMin= 3.01D-04
 ErrMax= 3.01D-04  0.00D+00 EMaxC= 1.00D-01 BMatC= 1.40D-05 BMatP= 5.82D-05
 IDIUse=3 WtCom= 9.97D-01 WtEn= 3.01D-03
 Coeff-Com: -0.166D-02 0.370D-02-0.306D-02-0.556D-01 0.262D-01 0.262D+00
 Coeff-Com: -0.189D+00-0.382D+00 0.298D-01 0.131D+01
 Coeff-En:   0.000D+00 0.000D+00 0.000D+00 0.000D+00 0.000D+00 0.000D+00
 Coeff-En:   0.000D+00 0.000D+00 0.000D+00 0.100D+01
 Coeff:     -0.165D-02 0.369D-02-0.305D-02-0.555D-01 0.261D-01 0.261D+00
 Coeff:     -0.188D+00-0.381D+00 0.297D-01 0.131D+01
 Gap=     0.269 Goal=   None    Shift=    0.000
 Gap=     0.269 Goal=   None    Shift=    0.000
 RMSDP=6.12D-05 MaxDP=2.59D-03 DE=-3.04D-04 OVMax= 2.54D-02

 Cycle  11  Pass 1  IDiag  1:
 RMSU=  1.04D-05    CP:  8.99D-01  2.28D+00  1.45D+00  3.00D+00  3.00D+00
                    CP:  3.00D+00  3.00D+00  3.00D+00  2.08D+00  1.81D+00
 E= -466.831940152985     Delta-E=       -0.000107815739 Rises=F Damp=F
 DIIS: error= 1.00D-04 at cycle  11 NSaved=  11.
 NSaved=11 IEnMin=11 EnMin= -466.831940152985     IErMin=11 ErrMin= 1.00D-04
 ErrMax= 1.00D-04  0.00D+00 EMaxC= 1.00D-01 BMatC= 3.27D-06 BMatP= 1.40D-05
 IDIUse=3 WtCom= 9.99D-01 WtEn= 1.00D-03
 Coeff-Com: -0.409D-02 0.885D-02 0.299D-02-0.390D-01-0.123D-01 0.110D+00
 Coeff-Com:  0.556D-01-0.241D+00-0.193D+00 0.397D+00 0.914D+00
 Coeff-En:   0.000D+00 0.000D+00 0.000D+00 0.000D+00 0.000D+00 0.000D+00
 Coeff-En:   0.000D+00 0.000D+00 0.000D+00 0.000D+00 0.100D+01
 Coeff:     -0.409D-02 0.885D-02 0.298D-02-0.389D-01-0.123D-01 0.110D+00
 Coeff:      0.556D-01-0.240D+00-0.193D+00 0.397D+00 0.914D+00
 Gap=     0.268 Goal=   None    Shift=    0.000
 Gap=     0.268 Goal=   None    Shift=    0.000
 RMSDP=2.23D-05 MaxDP=8.91D-04 DE=-1.08D-04 OVMax= 8.99D-03

 Cycle  12  Pass 1  IDiag  1:
 RMSU=  3.47D-06    CP:  8.99D-01  2.28D+00  1.45D+00  3.00D+00  3.00D+00
                    CP:  3.00D+00  3.00D+00  3.00D+00  2.24D+00  2.10D+00
                    CP:  1.60D+00
 E= -466.831952594289     Delta-E=       -0.000012441304 Rises=F Damp=F
 DIIS: error= 2.91D-05 at cycle  12 NSaved=  12.
 NSaved=12 IEnMin=12 EnMin= -466.831952594289     IErMin=12 ErrMin= 2.91D-05
 ErrMax= 2.91D-05  0.00D+00 EMaxC= 1.00D-01 BMatC= 5.02D-07 BMatP= 3.27D-06
 IDIUse=1 WtCom= 1.00D+00 WtEn= 0.00D+00
 Coeff-Com:  0.305D-02-0.661D-02-0.184D-02 0.296D-01-0.295D-03-0.929D-01
 Coeff-Com:  0.327D-01 0.112D+00 0.934D-02-0.308D+00 0.130D+00 0.109D+01
 Coeff:      0.305D-02-0.661D-02-0.184D-02 0.296D-01-0.295D-03-0.929D-01
 Coeff:      0.327D-01 0.112D+00 0.934D-02-0.308D+00 0.130D+00 0.109D+01
 Gap=     0.268 Goal=   None    Shift=    0.000
 Gap=     0.268 Goal=   None    Shift=    0.000
 RMSDP=6.38D-06 MaxDP=2.52D-04 DE=-1.24D-05 OVMax= 2.23D-03

 Cycle  13  Pass 1  IDiag  1:
 RMSU=  1.48D-06    CP:  8.98D-01  2.28D+00  1.45D+00  3.00D+00  3.00D+00
                    CP:  3.00D+00  3.00D+00  3.00D+00  2.28D+00  2.17D+00
                    CP:  1.88D+00  1.54D+00
 E= -466.831953641031     Delta-E=       -0.000001046743 Rises=F Damp=F
 DIIS: error= 7.87D-06 at cycle  13 NSaved=  13.
 NSaved=13 IEnMin=13 EnMin= -466.831953641031     IErMin=13 ErrMin= 7.87D-06
 ErrMax= 7.87D-06  0.00D+00 EMaxC= 1.00D-01 BMatC= 2.81D-08 BMatP= 5.02D-07
 IDIUse=1 WtCom= 1.00D+00 WtEn= 0.00D+00
 Coeff-Com:  0.446D-03-0.957D-03-0.287D-03 0.410D-02 0.406D-03-0.133D-01
 Coeff-Com:  0.317D-02 0.189D-01 0.558D-02-0.624D-01-0.297D-01 0.163D+00
 Coeff-Com:  0.911D+00
 Coeff:      0.446D-03-0.957D-03-0.287D-03 0.410D-02 0.406D-03-0.133D-01
 Coeff:      0.317D-02 0.189D-01 0.558D-02-0.624D-01-0.297D-01 0.163D+00
 Coeff:      0.911D+00
 Gap=     0.268 Goal=   None    Shift=    0.000
 Gap=     0.268 Goal=   None    Shift=    0.000
 RMSDP=1.83D-06 MaxDP=7.97D-05 DE=-1.05D-06 OVMax= 7.57D-04

 Cycle  14  Pass 1  IDiag  1:
 RMSU=  5.14D-07    CP:  8.98D-01  2.28D+00  1.45D+00  3.00D+00  3.00D+00
                    CP:  3.00D+00  3.00D+00  3.00D+00  2.30D+00  2.20D+00
                    CP:  1.91D+00  1.57D+00  1.09D+00
 E= -466.831953721336     Delta-E=       -0.000000080305 Rises=F Damp=F
 DIIS: error= 2.10D-06 at cycle  14 NSaved=  14.
 NSaved=14 IEnMin=14 EnMin= -466.831953721336     IErMin=14 ErrMin= 2.10D-06
 ErrMax= 2.10D-06  0.00D+00 EMaxC= 1.00D-01 BMatC= 3.30D-09 BMatP= 2.81D-08
 IDIUse=1 WtCom= 1.00D+00 WtEn= 0.00D+00
 Coeff-Com: -0.136D-03 0.293D-03 0.106D-03-0.120D-02-0.317D-03 0.339D-02
 Coeff-Com:  0.298D-03-0.505D-02-0.189D-02 0.112D-01-0.825D-02-0.537D-01
 Coeff-Com:  0.535D-01 0.100D+01
 Coeff:     -0.136D-03 0.293D-03 0.106D-03-0.120D-02-0.317D-03 0.339D-02
 Coeff:      0.298D-03-0.505D-02-0.189D-02 0.112D-01-0.825D-02-0.537D-01
 Coeff:      0.535D-01 0.100D+01
 Gap=     0.268 Goal=   None    Shift=    0.000
 Gap=     0.268 Goal=   None    Shift=    0.000
 RMSDP=3.75D-07 MaxDP=1.75D-05 DE=-8.03D-08 OVMax= 1.38D-04

 Cycle  15  Pass 1  IDiag  1:
 RMSU=  1.11D-07    CP:  8.98D-01  2.28D+00  1.45D+00  3.00D+00  3.00D+00
                    CP:  3.00D+00  3.00D+00  3.00D+00  2.30D+00  2.20D+00
                    CP:  1.92D+00  1.57D+00  1.12D+00  1.37D+00
 E= -466.831953725384     Delta-E=       -0.000000004048 Rises=F Damp=F
 DIIS: error= 9.33D-07 at cycle  15 NSaved=  15.
 NSaved=15 IEnMin=15 EnMin= -466.831953725384     IErMin=15 ErrMin= 9.33D-07
 ErrMax= 9.33D-07  0.00D+00 EMaxC= 1.00D-01 BMatC= 7.42D-10 BMatP= 3.30D-09
 IDIUse=1 WtCom= 1.00D+00 WtEn= 0.00D+00
 Coeff-Com: -0.854D-05 0.178D-04-0.923D-05-0.207D-03-0.679D-04 0.794D-03
 Coeff-Com: -0.144D-03-0.169D-02-0.279D-03 0.870D-02 0.250D-02-0.309D-01
 Coeff-Com: -0.129D+00 0.254D+00 0.896D+00
 Coeff:     -0.854D-05 0.178D-04-0.923D-05-0.207D-03-0.679D-04 0.794D-03
 Coeff:     -0.144D-03-0.169D-02-0.279D-03 0.870D-02 0.250D-02-0.309D-01
 Coeff:     -0.129D+00 0.254D+00 0.896D+00
 Gap=     0.268 Goal=   None    Shift=    0.000
 Gap=     0.268 Goal=   None    Shift=    0.000
 RMSDP=7.76D-08 MaxDP=4.08D-06 DE=-4.05D-09 OVMax= 1.52D-05

 Cycle  16  Pass 1  IDiag  1:
 RMSU=  4.01D-08    CP:  8.98D-01  2.28D+00  1.45D+00  3.00D+00  3.00D+00
                    CP:  3.00D+00  3.00D+00  3.00D+00  2.30D+00  2.20D+00
                    CP:  1.91D+00  1.57D+00  1.14D+00  1.46D+00  1.19D+00
 E= -466.831953725918     Delta-E=       -0.000000000534 Rises=F Damp=F
 DIIS: error= 4.82D-07 at cycle  16 NSaved=  16.
 NSaved=16 IEnMin=16 EnMin= -466.831953725918     IErMin=16 ErrMin= 4.82D-07
 ErrMax= 4.82D-07  0.00D+00 EMaxC= 1.00D-01 BMatC= 1.08D-10 BMatP= 7.42D-10
 IDIUse=1 WtCom= 1.00D+00 WtEn= 0.00D+00
 Coeff-Com:  0.240D-04-0.518D-04-0.205D-04 0.207D-03 0.161D-04-0.571D-03
 Coeff-Com:  0.118D-03 0.625D-03 0.259D-03-0.622D-03 0.640D-03 0.674D-03
 Coeff-Com: -0.255D-01-0.544D-01 0.167D+00 0.911D+00
 Coeff:      0.240D-04-0.518D-04-0.205D-04 0.207D-03 0.161D-04-0.571D-03
 Coeff:      0.118D-03 0.625D-03 0.259D-03-0.622D-03 0.640D-03 0.674D-03
 Coeff:     -0.255D-01-0.544D-01 0.167D+00 0.911D+00
 Gap=     0.268 Goal=   None    Shift=    0.000
 Gap=     0.268 Goal=   None    Shift=    0.000
 RMSDP=3.03D-08 MaxDP=1.50D-06 DE=-5.34D-10 OVMax= 5.58D-06

 Cycle  17  Pass 1  IDiag  1:
 RMSU=  1.75D-08    CP:  8.98D-01  2.28D+00  1.45D+00  3.00D+00  3.00D+00
                    CP:  3.00D+00  3.00D+00  3.00D+00  2.30D+00  2.20D+00
                    CP:  1.92D+00  1.57D+00  1.15D+00  1.47D+00  1.25D+00
                    CP:  1.34D+00
 E= -466.831953726035     Delta-E=       -0.000000000116 Rises=F Damp=F
 DIIS: error= 3.05D-07 at cycle  17 NSaved=  17.
 NSaved=17 IEnMin=17 EnMin= -466.831953726035     IErMin=17 ErrMin= 3.05D-07
 ErrMax= 3.05D-07  0.00D+00 EMaxC= 1.00D-01 BMatC= 3.14D-11 BMatP= 1.08D-10
 IDIUse=1 WtCom= 1.00D+00 WtEn= 0.00D+00
 Coeff-Com:  0.322D-05-0.672D-05-0.117D-05 0.300D-04 0.250D-04-0.112D-03
 Coeff-Com: -0.179D-04 0.278D-03 0.399D-04-0.176D-02-0.350D-03 0.706D-02
 Coeff-Com:  0.286D-01-0.554D-01-0.206D+00-0.540D-01 0.128D+01
 Coeff:      0.322D-05-0.672D-05-0.117D-05 0.300D-04 0.250D-04-0.112D-03
 Coeff:     -0.179D-04 0.278D-03 0.399D-04-0.176D-02-0.350D-03 0.706D-02
 Coeff:      0.286D-01-0.554D-01-0.206D+00-0.540D-01 0.128D+01
 Gap=     0.268 Goal=   None    Shift=    0.000
 Gap=     0.268 Goal=   None    Shift=    0.000
 RMSDP=2.55D-08 MaxDP=1.26D-06 DE=-1.16D-10 OVMax= 6.68D-06

 Cycle  18  Pass 1  IDiag  1:
 RMSU=  1.01D-08    CP:  8.98D-01  2.28D+00  1.45D+00  3.00D+00  3.00D+00
                    CP:  3.00D+00  3.00D+00  3.00D+00  2.30D+00  2.20D+00
                    CP:  1.92D+00  1.57D+00  1.15D+00  1.47D+00  1.32D+00
                    CP:  1.66D+00  1.57D+00
 E= -466.831953726096     Delta-E=       -0.000000000061 Rises=F Damp=F
 DIIS: error= 1.78D-07 at cycle  18 NSaved=  18.
 NSaved=18 IEnMin=18 EnMin= -466.831953726096     IErMin=18 ErrMin= 1.78D-07
 ErrMax= 1.78D-07  0.00D+00 EMaxC= 1.00D-01 BMatC= 1.01D-11 BMatP= 3.14D-11
 IDIUse=1 WtCom= 1.00D+00 WtEn= 0.00D+00
 Coeff-Com: -0.513D-05 0.110D-04 0.359D-05-0.561D-04-0.135D-05 0.168D-03
 Coeff-Com: -0.668D-04-0.162D-03-0.719D-04 0.181D-03-0.117D-03 0.150D-03
 Coeff-Com:  0.787D-02 0.129D-01-0.531D-01-0.260D+00 0.871D-01 0.120D+01
 Coeff:     -0.513D-05 0.110D-04 0.359D-05-0.561D-04-0.135D-05 0.168D-03
 Coeff:     -0.668D-04-0.162D-03-0.719D-04 0.181D-03-0.117D-03 0.150D-03
 Coeff:      0.787D-02 0.129D-01-0.531D-01-0.260D+00 0.871D-01 0.120D+01
 Gap=     0.268 Goal=   None    Shift=    0.000
 Gap=     0.268 Goal=   None    Shift=    0.000
 RMSDP=1.40D-08 MaxDP=6.88D-07 DE=-6.14D-11 OVMax= 3.68D-06

 Cycle  19  Pass 1  IDiag  1:
 RMSU=  4.67D-09    CP:  8.98D-01  2.28D+00  1.45D+00  3.00D+00  3.00D+00
                    CP:  3.00D+00  3.00D+00  3.00D+00  2.30D+00  2.20D+00
                    CP:  1.92D+00  1.57D+00  1.15D+00  1.47D+00  1.33D+00
                    CP:  1.80D+00  1.96D+00  1.70D+00
 E= -466.831953726123     Delta-E=       -0.000000000027 Rises=F Damp=F
 DIIS: error= 1.04D-07 at cycle  19 NSaved=  19.
 NSaved=19 IEnMin=19 EnMin= -466.831953726123     IErMin=19 ErrMin= 1.04D-07
 ErrMax= 1.04D-07  0.00D+00 EMaxC= 1.00D-01 BMatC= 4.05D-12 BMatP= 1.01D-11
 IDIUse=1 WtCom= 1.00D+00 WtEn= 0.00D+00
 Coeff-Com: -0.307D-05 0.654D-05 0.184D-05-0.296D-04-0.112D-04 0.952D-04
 Coeff-Com: -0.515D-05-0.140D-03-0.520D-04 0.594D-03 0.118D-04-0.228D-02
 Coeff-Com: -0.590D-02 0.246D-01 0.473D-01-0.938D-01-0.409D+00 0.535D+00
 Coeff-Com:  0.903D+00
 Coeff:     -0.307D-05 0.654D-05 0.184D-05-0.296D-04-0.112D-04 0.952D-04
 Coeff:     -0.515D-05-0.140D-03-0.520D-04 0.594D-03 0.118D-04-0.228D-02
 Coeff:     -0.590D-02 0.246D-01 0.473D-01-0.938D-01-0.409D+00 0.535D+00
 Coeff:      0.903D+00
 Gap=     0.268 Goal=   None    Shift=    0.000
 Gap=     0.268 Goal=   None    Shift=    0.000
 RMSDP=7.28D-09 MaxDP=3.38D-07 DE=-2.66D-11 OVMax= 1.90D-06

 Error on total polarization charges =  0.01175
 SCF Done:  E(UwB97XD) =  -466.831953726     A.U. after   19 cycles
            NFock= 19  Conv=0.73D-08     -V/T= 2.0055
 <Sx>= 0.0000 <Sy>= 0.0000 <Sz>= 0.0000 <S**2>= 0.0000 S= 0.0000
 <L.S>=  0.00000000000    
 KE= 4.642957949057D+02 PE=-2.461976829132D+03 EE= 8.407570559229D+02
 --------------------------------------------------------------------
 Variational PCM results
 =======================
 <psi(f)|   H    |psi(f)>                     (a.u.) =    -466.830464
 <psi(f)|H+V(f)/2|psi(f)>                     (a.u.) =    -466.831954
 (Polarized solute)-Solvent               (kcal/mol) =      -0.93
 --------------------------------------------------------------------
 Partition over spheres:
 Sphere  on Atom  Surface  Charge   GEl     GCav    GDR
    1      C1       7.24   0.011   -0.05    0.00    0.00
    2      C2       2.86   0.004   -0.02    0.00    0.00
    3      H3       7.52  -0.010   -0.03    0.00    0.00
    4      H4       2.64  -0.003   -0.01    0.00    0.00
    5      C5       4.75   0.009   -0.06    0.00    0.00
    6      C6       2.65   0.004   -0.02    0.00    0.00
    7      H7       4.73  -0.007   -0.03    0.00    0.00
    8      H8       2.25  -0.003   -0.01    0.00    0.00
    9      C9       3.30   0.002    0.00    0.00    0.00
   10      H10      6.22  -0.006   -0.01    0.00    0.00
   11      H11      3.97  -0.003   -0.01    0.00    0.00
   12      C12      6.81   0.011   -0.06    0.00    0.00
   13      H13      7.50  -0.010   -0.03    0.00    0.00
   14      C14      6.73   0.011   -0.05    0.00    0.00
   15      H15      7.52  -0.010   -0.03    0.00    0.00
   16      C16      3.47   0.001    0.00    0.00    0.00
   17      H17      3.90  -0.004   -0.02    0.00    0.00
   18      H18      7.42  -0.008   -0.03    0.00    0.00
   19      C19      4.92   0.009   -0.06    0.00    0.00
   20      H20      5.02  -0.007   -0.03    0.00    0.00
   21      C21      7.18   0.011   -0.07    0.00    0.00
   22      H22      7.52  -0.010   -0.03    0.00    0.00
   23      C23      3.05   0.002    0.00    0.00    0.00
   24      H24      3.47  -0.003   -0.01    0.00    0.00
   25      H25      6.22  -0.006   -0.01    0.00    0.00
   26      C26      3.29   0.001    0.00    0.00    0.00
   27      H27      7.35  -0.008   -0.03    0.00    0.00
   28      H28      4.10  -0.004   -0.02    0.00    0.00
 Added spheres:    74.71   0.014   -0.21    0.00    0.00
 --------------------------------------------------------------------
 After PCM corrections, the energy is  -466.831953726     a.u.
 --------------------------------------------------------------------
 Annihilation of the first spin contaminant:
 S**2 before annihilation     0.0000,   after     0.0000
 Leave Link  502 at Mon Aug  3 15:54:34 2020, MaxMem=  6442450944 cpu:            8073.7 elap:             339.2
 (Enter /scratch/scicomp/CentOS/7.3.1611/Haswell/software/Gaussian/g16/l601.exe)
 Copying SCF densities to generalized density rwf, IOpCl= 1 IROHF=0.

 **********************************************************************

            Population analysis using the SCF Density.

 **********************************************************************

 Alpha  occ. eigenvalues --  -10.28621 -10.28621 -10.28585 -10.28584 -10.28260
 Alpha  occ. eigenvalues --  -10.28260 -10.28206 -10.28206 -10.28012 -10.28012
 Alpha  occ. eigenvalues --  -10.27182 -10.27181  -0.94939  -0.93510  -0.85054
 Alpha  occ. eigenvalues --   -0.84443  -0.83679  -0.83344  -0.71718  -0.70886
 Alpha  occ. eigenvalues --   -0.68713  -0.67838  -0.60087  -0.59932  -0.57931
 Alpha  occ. eigenvalues --   -0.56386  -0.53537  -0.53166  -0.51146  -0.50785
 Alpha  occ. eigenvalues --   -0.49896  -0.48936  -0.47769  -0.47087  -0.46199
 Alpha  occ. eigenvalues --   -0.44799  -0.41596  -0.41055  -0.39962  -0.39339
 Alpha  occ. eigenvalues --   -0.39138  -0.38361  -0.30841  -0.25512
 Alpha virt. eigenvalues --    0.01281   0.07165   0.10459   0.12405   0.13408
 Alpha virt. eigenvalues --    0.14516   0.14744   0.15573   0.15856   0.16271
 Alpha virt. eigenvalues --    0.16463   0.17417   0.17630   0.18619   0.19916
 Alpha virt. eigenvalues --    0.20924   0.21388   0.22838   0.23347   0.24025
 Alpha virt. eigenvalues --    0.24512   0.25250   0.26245   0.26545   0.27519
 Alpha virt. eigenvalues --    0.28658   0.29069   0.29680   0.30314   0.30593
 Alpha virt. eigenvalues --    0.30898   0.31642   0.32442   0.33008   0.34062
 Alpha virt. eigenvalues --    0.34479   0.35125   0.35751   0.36364   0.37503
 Alpha virt. eigenvalues --    0.37861   0.38779   0.41325   0.41763   0.42279
 Alpha virt. eigenvalues --    0.43970   0.44066   0.44101   0.44772   0.45496
 Alpha virt. eigenvalues --    0.46664   0.47709   0.48181   0.48525   0.48789
 Alpha virt. eigenvalues --    0.48792   0.48927   0.49202   0.49947   0.50217
 Alpha virt. eigenvalues --    0.50348   0.50604   0.52001   0.52216   0.52942
 Alpha virt. eigenvalues --    0.52947   0.54258   0.54629   0.55038   0.55431
 Alpha virt. eigenvalues --    0.56768   0.57295   0.58161   0.59372   0.60279
 Alpha virt. eigenvalues --    0.60578   0.60812   0.61649   0.63592   0.63819
 Alpha virt. eigenvalues --    0.66413   0.66733   0.67890   0.68386   0.68950
 Alpha virt. eigenvalues --    0.70578   0.72188   0.73516   0.75923   0.76552
 Alpha virt. eigenvalues --    0.77324   0.78388   0.78831   0.80742   0.81976
 Alpha virt. eigenvalues --    0.83326   0.84114   0.85178   0.85425   0.87756
 Alpha virt. eigenvalues --    0.89011   0.90363   0.92264   0.93884   0.94587
 Alpha virt. eigenvalues --    0.95268   0.97619   0.97651   0.98634   0.99897
 Alpha virt. eigenvalues --    1.02133   1.02584   1.03997   1.04919   1.05410
 Alpha virt. eigenvalues --    1.07175   1.07820   1.08361   1.09520   1.10980
 Alpha virt. eigenvalues --    1.12480   1.13572   1.15155   1.16680   1.16712
 Alpha virt. eigenvalues --    1.17560   1.18767   1.19115   1.19632   1.19687
 Alpha virt. eigenvalues --    1.20293   1.21697   1.23893   1.25580   1.25875
 Alpha virt. eigenvalues --    1.26343   1.26886   1.28215   1.28975   1.29348
 Alpha virt. eigenvalues --    1.30576   1.30578   1.32991   1.33293   1.33399
 Alpha virt. eigenvalues --    1.34855   1.35087   1.36586   1.38026   1.39268
 Alpha virt. eigenvalues --    1.39454   1.40089   1.40378   1.41509   1.42718
 Alpha virt. eigenvalues --    1.42935   1.43112   1.43441   1.44638   1.45187
 Alpha virt. eigenvalues --    1.45348   1.45555   1.47887   1.48784   1.48871
 Alpha virt. eigenvalues --    1.50695   1.53084   1.53954   1.57204   1.57287
 Alpha virt. eigenvalues --    1.57842   1.59077   1.60279   1.60618   1.62249
 Alpha virt. eigenvalues --    1.63997   1.64665   1.64941   1.66106   1.68229
 Alpha virt. eigenvalues --    1.69904   1.72360   1.76302   1.76597   1.76814
 Alpha virt. eigenvalues --    1.79971   1.82072   1.82207   1.84640   1.86090
 Alpha virt. eigenvalues --    1.88890   1.89967   1.90629   1.93899   1.94006
 Alpha virt. eigenvalues --    1.95487   1.97281   1.97617   2.01075   2.01842
 Alpha virt. eigenvalues --    2.05278   2.06233   2.08553   2.11466   2.12185
 Alpha virt. eigenvalues --    2.12736   2.15189   2.16105   2.16933   2.18579
 Alpha virt. eigenvalues --    2.18814   2.19539   2.19950   2.24160   2.24361
 Alpha virt. eigenvalues --    2.24467   2.25419   2.26792   2.29854   2.31949
 Alpha virt. eigenvalues --    2.36313   2.36436   2.38937   2.40851   2.43671
 Alpha virt. eigenvalues --    2.44386   2.47545   2.47931   2.48415   2.50048
 Alpha virt. eigenvalues --    2.50477   2.52500   2.53135   2.55399   2.57035
 Alpha virt. eigenvalues --    2.60032   2.60975   2.61702   2.62344   2.62516
 Alpha virt. eigenvalues --    2.64707   2.64999   2.65428   2.67308   2.68869
 Alpha virt. eigenvalues --    2.69571   2.71042   2.72534   2.72629   2.74637
 Alpha virt. eigenvalues --    2.75184   2.75347   2.75518   2.76342   2.76937
 Alpha virt. eigenvalues --    2.79581   2.79777   2.81429   2.81898   2.82520
 Alpha virt. eigenvalues --    2.82619   2.83689   2.84591   2.84742   2.85844
 Alpha virt. eigenvalues --    2.86296   2.88206   2.88803   2.89886   2.92197
 Alpha virt. eigenvalues --    2.92486   2.94372   2.95107   2.95275   2.97228
 Alpha virt. eigenvalues --    2.97655   2.97811   2.99228   2.99359   3.01594
 Alpha virt. eigenvalues --    3.01908   3.02509   3.03989   3.04567   3.05717
 Alpha virt. eigenvalues --    3.07194   3.08352   3.09430   3.10768   3.10962
 Alpha virt. eigenvalues --    3.11985   3.12300   3.13275   3.14527   3.14938
 Alpha virt. eigenvalues --    3.16079   3.16418   3.17304   3.17653   3.19867
 Alpha virt. eigenvalues --    3.20219   3.20412   3.20729   3.21568   3.22800
 Alpha virt. eigenvalues --    3.23619   3.23931   3.23965   3.25207   3.25441
 Alpha virt. eigenvalues --    3.26159   3.27472   3.27581   3.28893   3.29619
 Alpha virt. eigenvalues --    3.29984   3.30976   3.31823   3.31984   3.33753
 Alpha virt. eigenvalues --    3.33977   3.34474   3.35906   3.36293   3.37140
 Alpha virt. eigenvalues --    3.37253   3.38530   3.39348   3.41889   3.42234
 Alpha virt. eigenvalues --    3.43909   3.44796   3.44977   3.45798   3.46891
 Alpha virt. eigenvalues --    3.47520   3.47917   3.47950   3.48789   3.50327
 Alpha virt. eigenvalues --    3.52324   3.52883   3.52986   3.53203   3.54765
 Alpha virt. eigenvalues --    3.55914   3.56607   3.57549   3.58111   3.60570
 Alpha virt. eigenvalues --    3.62249   3.63116   3.63738   3.64151   3.64308
 Alpha virt. eigenvalues --    3.65237   3.67881   3.67889   3.70480   3.71036
 Alpha virt. eigenvalues --    3.71754   3.72400   3.75222   3.79104   3.79532
 Alpha virt. eigenvalues --    3.80959   3.81469   3.82673   3.83050   3.83647
 Alpha virt. eigenvalues --    3.84816   3.86597   3.89618   3.90675   3.90928
 Alpha virt. eigenvalues --    3.92790   3.95438   3.96496   4.00890   4.01020
 Alpha virt. eigenvalues --    4.03366   4.04458   4.06384   4.07038   4.09639
 Alpha virt. eigenvalues --    4.09909   4.12082   4.13537   4.13823   4.13959
 Alpha virt. eigenvalues --    4.15683   4.17653   4.18482   4.18724   4.20831
 Alpha virt. eigenvalues --    4.21388   4.23246   4.25457   4.28631   4.28798
 Alpha virt. eigenvalues --    4.30738   4.32151   4.32918   4.34212   4.38958
 Alpha virt. eigenvalues --    4.39021   4.40373   4.42225   4.44595   4.48401
 Alpha virt. eigenvalues --    4.48638   4.50506   4.50738   4.54409   4.56192
 Alpha virt. eigenvalues --    4.57182   4.60704   4.61674   4.67939   4.68158
 Alpha virt. eigenvalues --    4.71109   4.73070   4.74760   4.76547   4.78915
 Alpha virt. eigenvalues --    4.81128   4.81654   4.83957   4.86142   4.87432
 Alpha virt. eigenvalues --    4.90810   4.92370   4.93206   4.93976   4.98118
 Alpha virt. eigenvalues --    4.98625   5.05073   5.07099   5.11398   5.12287
 Alpha virt. eigenvalues --    5.17580   5.20416   5.22409   5.22438   5.25164
 Alpha virt. eigenvalues --    5.28550   5.36457   5.38465   5.40166   5.42144
 Alpha virt. eigenvalues --    5.46108   5.46199   5.51651   5.56736   5.71375
 Alpha virt. eigenvalues --    5.72217   5.75308   5.77221   5.95774   6.02092
 Alpha virt. eigenvalues --    7.95195   7.95713   8.03656   8.03723   8.05354
 Alpha virt. eigenvalues --    8.10041   8.11249   8.14682   8.18922   8.19990
 Alpha virt. eigenvalues --    8.34489   8.39123  34.77692  34.77707  34.81365
 Alpha virt. eigenvalues --   34.81438  34.84760  34.91708  34.97671  34.99777
 Alpha virt. eigenvalues --   35.02932  35.03342  35.16793  35.20929
  Beta  occ. eigenvalues --  -10.28621 -10.28621 -10.28585 -10.28584 -10.28260
  Beta  occ. eigenvalues --  -10.28260 -10.28206 -10.28206 -10.28012 -10.28012
  Beta  occ. eigenvalues --  -10.27182 -10.27181  -0.94939  -0.93510  -0.85054
  Beta  occ. eigenvalues --   -0.84443  -0.83679  -0.83344  -0.71718  -0.70886
  Beta  occ. eigenvalues --   -0.68713  -0.67838  -0.60087  -0.59932  -0.57931
  Beta  occ. eigenvalues --   -0.56386  -0.53537  -0.53166  -0.51146  -0.50785
  Beta  occ. eigenvalues --   -0.49896  -0.48936  -0.47769  -0.47087  -0.46199
  Beta  occ. eigenvalues --   -0.44799  -0.41596  -0.41055  -0.39962  -0.39339
  Beta  occ. eigenvalues --   -0.39138  -0.38361  -0.30841  -0.25512
  Beta virt. eigenvalues --    0.01281   0.07165   0.10459   0.12405   0.13408
  Beta virt. eigenvalues --    0.14516   0.14744   0.15573   0.15856   0.16271
  Beta virt. eigenvalues --    0.16463   0.17417   0.17630   0.18619   0.19916
  Beta virt. eigenvalues --    0.20924   0.21388   0.22838   0.23347   0.24025
  Beta virt. eigenvalues --    0.24512   0.25250   0.26245   0.26545   0.27519
  Beta virt. eigenvalues --    0.28658   0.29069   0.29680   0.30314   0.30593
  Beta virt. eigenvalues --    0.30898   0.31642   0.32442   0.33008   0.34062
  Beta virt. eigenvalues --    0.34479   0.35125   0.35751   0.36364   0.37503
  Beta virt. eigenvalues --    0.37861   0.38779   0.41325   0.41763   0.42279
  Beta virt. eigenvalues --    0.43970   0.44066   0.44101   0.44772   0.45496
  Beta virt. eigenvalues --    0.46664   0.47709   0.48181   0.48525   0.48789
  Beta virt. eigenvalues --    0.48792   0.48927   0.49202   0.49947   0.50217
  Beta virt. eigenvalues --    0.50348   0.50604   0.52001   0.52216   0.52942
  Beta virt. eigenvalues --    0.52947   0.54258   0.54629   0.55038   0.55431
  Beta virt. eigenvalues --    0.56768   0.57295   0.58161   0.59372   0.60279
  Beta virt. eigenvalues --    0.60578   0.60812   0.61649   0.63592   0.63819
  Beta virt. eigenvalues --    0.66413   0.66733   0.67890   0.68386   0.68950
  Beta virt. eigenvalues --    0.70578   0.72188   0.73516   0.75923   0.76552
  Beta virt. eigenvalues --    0.77324   0.78388   0.78831   0.80742   0.81976
  Beta virt. eigenvalues --    0.83326   0.84114   0.85178   0.85425   0.87756
  Beta virt. eigenvalues --    0.89011   0.90363   0.92264   0.93884   0.94587
  Beta virt. eigenvalues --    0.95268   0.97619   0.97651   0.98634   0.99897
  Beta virt. eigenvalues --    1.02133   1.02584   1.03997   1.04919   1.05410
  Beta virt. eigenvalues --    1.07175   1.07820   1.08361   1.09520   1.10980
  Beta virt. eigenvalues --    1.12480   1.13572   1.15155   1.16680   1.16712
  Beta virt. eigenvalues --    1.17560   1.18767   1.19115   1.19632   1.19687
  Beta virt. eigenvalues --    1.20293   1.21697   1.23893   1.25580   1.25875
  Beta virt. eigenvalues --    1.26343   1.26886   1.28215   1.28975   1.29348
  Beta virt. eigenvalues --    1.30576   1.30578   1.32991   1.33293   1.33399
  Beta virt. eigenvalues --    1.34855   1.35087   1.36586   1.38026   1.39268
  Beta virt. eigenvalues --    1.39454   1.40089   1.40378   1.41509   1.42718
  Beta virt. eigenvalues --    1.42935   1.43112   1.43441   1.44638   1.45187
  Beta virt. eigenvalues --    1.45348   1.45555   1.47887   1.48784   1.48871
  Beta virt. eigenvalues --    1.50695   1.53084   1.53954   1.57204   1.57287
  Beta virt. eigenvalues --    1.57842   1.59077   1.60279   1.60618   1.62249
  Beta virt. eigenvalues --    1.63997   1.64665   1.64941   1.66106   1.68229
  Beta virt. eigenvalues --    1.69904   1.72360   1.76302   1.76597   1.76814
  Beta virt. eigenvalues --    1.79971   1.82072   1.82207   1.84640   1.86090
  Beta virt. eigenvalues --    1.88890   1.89967   1.90629   1.93899   1.94006
  Beta virt. eigenvalues --    1.95487   1.97281   1.97617   2.01075   2.01842
  Beta virt. eigenvalues --    2.05278   2.06233   2.08553   2.11466   2.12185
  Beta virt. eigenvalues --    2.12736   2.15189   2.16105   2.16933   2.18579
  Beta virt. eigenvalues --    2.18814   2.19539   2.19950   2.24160   2.24361
  Beta virt. eigenvalues --    2.24467   2.25419   2.26792   2.29854   2.31949
  Beta virt. eigenvalues --    2.36313   2.36436   2.38937   2.40851   2.43671
  Beta virt. eigenvalues --    2.44386   2.47545   2.47931   2.48415   2.50048
  Beta virt. eigenvalues --    2.50477   2.52500   2.53135   2.55399   2.57035
  Beta virt. eigenvalues --    2.60032   2.60975   2.61702   2.62344   2.62516
  Beta virt. eigenvalues --    2.64707   2.64999   2.65428   2.67308   2.68869
  Beta virt. eigenvalues --    2.69571   2.71042   2.72534   2.72629   2.74637
  Beta virt. eigenvalues --    2.75184   2.75347   2.75518   2.76342   2.76937
  Beta virt. eigenvalues --    2.79581   2.79777   2.81429   2.81898   2.82520
  Beta virt. eigenvalues --    2.82619   2.83689   2.84591   2.84742   2.85844
  Beta virt. eigenvalues --    2.86296   2.88206   2.88803   2.89886   2.92197
  Beta virt. eigenvalues --    2.92486   2.94372   2.95107   2.95275   2.97228
  Beta virt. eigenvalues --    2.97655   2.97811   2.99228   2.99359   3.01594
  Beta virt. eigenvalues --    3.01908   3.02509   3.03989   3.04567   3.05717
  Beta virt. eigenvalues --    3.07194   3.08352   3.09430   3.10768   3.10962
  Beta virt. eigenvalues --    3.11985   3.12300   3.13275   3.14527   3.14938
  Beta virt. eigenvalues --    3.16079   3.16418   3.17304   3.17653   3.19867
  Beta virt. eigenvalues --    3.20219   3.20412   3.20729   3.21568   3.22800
  Beta virt. eigenvalues --    3.23619   3.23931   3.23965   3.25207   3.25441
  Beta virt. eigenvalues --    3.26159   3.27472   3.27581   3.28893   3.29619
  Beta virt. eigenvalues --    3.29984   3.30976   3.31823   3.31984   3.33753
  Beta virt. eigenvalues --    3.33977   3.34474   3.35906   3.36293   3.37140
  Beta virt. eigenvalues --    3.37253   3.38530   3.39348   3.41889   3.42234
  Beta virt. eigenvalues --    3.43909   3.44796   3.44977   3.45798   3.46891
  Beta virt. eigenvalues --    3.47520   3.47917   3.47950   3.48789   3.50327
  Beta virt. eigenvalues --    3.52324   3.52883   3.52986   3.53203   3.54765
  Beta virt. eigenvalues --    3.55914   3.56607   3.57549   3.58111   3.60570
  Beta virt. eigenvalues --    3.62249   3.63116   3.63738   3.64151   3.64308
  Beta virt. eigenvalues --    3.65237   3.67881   3.67889   3.70480   3.71036
  Beta virt. eigenvalues --    3.71754   3.72400   3.75222   3.79104   3.79532
  Beta virt. eigenvalues --    3.80959   3.81469   3.82673   3.83050   3.83647
  Beta virt. eigenvalues --    3.84816   3.86597   3.89618   3.90675   3.90928
  Beta virt. eigenvalues --    3.92790   3.95438   3.96496   4.00890   4.01020
  Beta virt. eigenvalues --    4.03366   4.04458   4.06384   4.07038   4.09639
  Beta virt. eigenvalues --    4.09909   4.12082   4.13537   4.13823   4.13959
  Beta virt. eigenvalues --    4.15683   4.17653   4.18482   4.18724   4.20831
  Beta virt. eigenvalues --    4.21388   4.23246   4.25457   4.28631   4.28798
  Beta virt. eigenvalues --    4.30738   4.32151   4.32918   4.34212   4.38958
  Beta virt. eigenvalues --    4.39021   4.40373   4.42225   4.44595   4.48401
  Beta virt. eigenvalues --    4.48638   4.50506   4.50738   4.54409   4.56192
  Beta virt. eigenvalues --    4.57182   4.60704   4.61674   4.67939   4.68158
  Beta virt. eigenvalues --    4.71109   4.73070   4.74760   4.76547   4.78915
  Beta virt. eigenvalues --    4.81128   4.81654   4.83957   4.86142   4.87432
  Beta virt. eigenvalues --    4.90810   4.92370   4.93206   4.93976   4.98118
  Beta virt. eigenvalues --    4.98625   5.05073   5.07099   5.11398   5.12287
  Beta virt. eigenvalues --    5.17580   5.20416   5.22409   5.22438   5.25164
  Beta virt. eigenvalues --    5.28550   5.36457   5.38465   5.40166   5.42144
  Beta virt. eigenvalues --    5.46108   5.46199   5.51651   5.56736   5.71375
  Beta virt. eigenvalues --    5.72217   5.75308   5.77221   5.95774   6.02092
  Beta virt. eigenvalues --    7.95195   7.95713   8.03656   8.03723   8.05354
  Beta virt. eigenvalues --    8.10041   8.11249   8.14682   8.18922   8.19990
  Beta virt. eigenvalues --    8.34489   8.39123  34.77692  34.77707  34.81365
  Beta virt. eigenvalues --   34.81438  34.84760  34.91708  34.97671  34.99777
  Beta virt. eigenvalues --   35.02932  35.03342  35.16793  35.20929
          Condensed to atoms (all electrons):
               1          2          3          4          5          6
     1  C    5.152417  -0.005284   0.425559  -0.002322   0.001659  -0.009932
     2  C   -0.005284   5.390354  -0.002257   0.427005  -0.089766  -0.008805
     3  H    0.425559  -0.002257   0.497459   0.000041  -0.000045   0.000060
     4  H   -0.002322   0.427005   0.000041   0.472193  -0.019200  -0.001493
     5  C    0.001659  -0.089766  -0.000045  -0.019200   5.216137   0.513179
     6  C   -0.009932  -0.008805   0.000060  -0.001493   0.513179   5.390285
     7  H    0.000199  -0.003175   0.000002  -0.000010   0.436891  -0.032704
     8  H   -0.000629  -0.001493  -0.000119   0.000560  -0.033698   0.427023
     9  C    0.002968  -0.022097  -0.000010  -0.004839  -0.065647   0.238321
    10  H   -0.000046   0.003202  -0.000001  -0.000523  -0.007372  -0.048422
    11  H    0.000111  -0.007681   0.000004   0.000719   0.010131  -0.059292
    12  C   -0.000200   0.021438   0.000001   0.007191   0.280814  -0.065927
    13  H   -0.000001   0.000235   0.000000   0.000066  -0.038871   0.005264
    14  C    0.000138  -0.009935  -0.000000  -0.000628  -0.043465  -0.005267
    15  H   -0.000000   0.000060  -0.000000  -0.000119   0.006818  -0.002260
    16  C   -0.000514   0.016938   0.000000   0.000039  -0.003050  -0.067336
    17  H    0.000007   0.001421  -0.000000  -0.005227   0.010887  -0.003564
    18  H    0.000003   0.000119   0.000000   0.000493  -0.003230   0.012467
    19  C   -0.043489   0.513189   0.006812  -0.033660  -0.030757  -0.089743
    20  H    0.004904  -0.032714  -0.000134  -0.005624   0.000079  -0.003172
    21  C    0.572875  -0.065922  -0.033108   0.005645   0.004252   0.021429
    22  H   -0.029186   0.005254  -0.006690  -0.000076   0.000059   0.000235
    23  C   -0.088739   0.238293   0.005701  -0.013330   0.009809  -0.022098
    24  H    0.013140  -0.059291  -0.000100  -0.004118   0.001481  -0.007680
    25  H    0.005797  -0.048439  -0.000011  -0.001964   0.000785   0.003202
    26  C    0.275217  -0.067363  -0.031895   0.005539  -0.010544   0.016945
    27  H   -0.033272   0.012472  -0.004286  -0.000084   0.000402   0.000119
    28  H   -0.031841  -0.003569   0.001231  -0.000224  -0.004666   0.001420
               7          8          9         10         11         12
     1  C    0.000199  -0.000629   0.002968  -0.000046   0.000111  -0.000200
     2  C   -0.003175  -0.001493  -0.022097   0.003202  -0.007681   0.021438
     3  H    0.000002  -0.000119  -0.000010  -0.000001   0.000004   0.000001
     4  H   -0.000010   0.000560  -0.004839  -0.000523   0.000719   0.007191
     5  C    0.436891  -0.033698  -0.065647  -0.007372   0.010131   0.280814
     6  C   -0.032704   0.427023   0.238321  -0.048422  -0.059292  -0.065927
     7  H    0.484940  -0.005627   0.003618  -0.000135  -0.000030  -0.036792
     8  H   -0.005627   0.472226  -0.013318  -0.001963  -0.004120   0.005646
     9  C    0.003618  -0.013318   4.967986   0.397947   0.462917   0.034454
    10  H   -0.000135  -0.001963   0.397947   0.578482  -0.021434   0.000746
    11  H   -0.000030  -0.004120   0.462917  -0.021434   0.530723  -0.004701
    12  C   -0.036792   0.005646   0.034454   0.000746  -0.004701   5.027945
    13  H   -0.003757  -0.000076   0.000046  -0.000104   0.000034   0.427115
    14  C    0.004908  -0.002324  -0.088748   0.005792   0.013142   0.572816
    15  H   -0.000134   0.000041   0.005701  -0.000011  -0.000099  -0.033147
    16  C   -0.001373   0.005541   0.346554  -0.024930  -0.054596  -0.051887
    17  H    0.000011  -0.000224  -0.029370   0.006991  -0.007351  -0.014366
    18  H    0.000041  -0.000084  -0.042258  -0.010163  -0.000950   0.005276
    19  C    0.000079  -0.019193   0.009788   0.000786   0.001479   0.004253
    20  H    0.000006  -0.000011   0.003222   0.000412  -0.002768  -0.000137
    21  C   -0.000137   0.007191  -0.003421  -0.000148  -0.000005  -0.000462
    22  H   -0.000002   0.000066  -0.000105  -0.000000  -0.000023  -0.000001
    23  C    0.003223  -0.004846   0.003274  -0.000126   0.000308  -0.003426
    24  H   -0.002771   0.000720   0.000308  -0.000032  -0.000010  -0.000005
    25  H    0.000412  -0.000523  -0.000126   0.000016  -0.000032  -0.000148
    26  C   -0.001927   0.000042  -0.001668   0.000068  -0.000151   0.001256
    27  H   -0.000017   0.000493   0.000010  -0.000000  -0.000001  -0.000040
    28  H    0.002181  -0.005225   0.000480   0.000010   0.000002   0.000279
              13         14         15         16         17         18
     1  C   -0.000001   0.000138  -0.000000  -0.000514   0.000007   0.000003
     2  C    0.000235  -0.009935   0.000060   0.016938   0.001421   0.000119
     3  H    0.000000  -0.000000  -0.000000   0.000000  -0.000000   0.000000
     4  H    0.000066  -0.000628  -0.000119   0.000039  -0.005227   0.000493
     5  C   -0.038871  -0.043465   0.006818  -0.003050   0.010887  -0.003230
     6  C    0.005264  -0.005267  -0.002260  -0.067336  -0.003564   0.012467
     7  H   -0.003757   0.004908  -0.000134  -0.001373   0.000011   0.000041
     8  H   -0.000076  -0.002324   0.000041   0.005541  -0.000224  -0.000084
     9  C    0.000046  -0.088748   0.005701   0.346554  -0.029370  -0.042258
    10  H   -0.000104   0.005792  -0.000011  -0.024930   0.006991  -0.010163
    11  H    0.000034   0.013142  -0.000099  -0.054596  -0.007351  -0.000950
    12  C    0.427115   0.572816  -0.033147  -0.051887  -0.014366   0.005276
    13  H    0.496927  -0.029170  -0.006692   0.005076  -0.000452  -0.000129
    14  C   -0.029170   5.152523   0.425585   0.275216  -0.031850  -0.033258
    15  H   -0.006692   0.425585   0.497457  -0.031882   0.001230  -0.004285
    16  C    0.005076   0.275216  -0.031882   4.958324   0.395458   0.426440
    17  H   -0.000452  -0.031850   0.001230   0.395458   0.584682  -0.022863
    18  H   -0.000129  -0.033258  -0.004285   0.426440  -0.022863   0.544703
    19  C    0.000059   0.001659  -0.000045  -0.010541  -0.004666   0.000402
    20  H   -0.000002   0.000198   0.000002  -0.001926   0.002180  -0.000017
    21  C   -0.000001  -0.000200   0.000001   0.001256   0.000279  -0.000040
    22  H    0.000000  -0.000001   0.000000   0.000009  -0.000001  -0.000001
    23  C   -0.000105   0.002968  -0.000010  -0.001668   0.000480   0.000010
    24  H   -0.000024   0.000111   0.000004  -0.000151   0.000002  -0.000001
    25  H   -0.000000  -0.000046  -0.000001   0.000068   0.000010  -0.000000
    26  C    0.000009  -0.000514   0.000000   0.000581  -0.000001  -0.000003
    27  H   -0.000001   0.000003   0.000000  -0.000003   0.000001  -0.000000
    28  H   -0.000001   0.000008  -0.000000  -0.000001  -0.000013   0.000001
              19         20         21         22         23         24
     1  C   -0.043489   0.004904   0.572875  -0.029186  -0.088739   0.013140
     2  C    0.513189  -0.032714  -0.065922   0.005254   0.238293  -0.059291
     3  H    0.006812  -0.000134  -0.033108  -0.006690   0.005701  -0.000100
     4  H   -0.033660  -0.005624   0.005645  -0.000076  -0.013330  -0.004118
     5  C   -0.030757   0.000079   0.004252   0.000059   0.009809   0.001481
     6  C   -0.089743  -0.003172   0.021429   0.000235  -0.022098  -0.007680
     7  H    0.000079   0.000006  -0.000137  -0.000002   0.003223  -0.002771
     8  H   -0.019193  -0.000011   0.007191   0.000066  -0.004846   0.000720
     9  C    0.009788   0.003222  -0.003421  -0.000105   0.003274   0.000308
    10  H    0.000786   0.000412  -0.000148  -0.000000  -0.000126  -0.000032
    11  H    0.001479  -0.002768  -0.000005  -0.000023   0.000308  -0.000010
    12  C    0.004253  -0.000137  -0.000462  -0.000001  -0.003426  -0.000005
    13  H    0.000059  -0.000002  -0.000001   0.000000  -0.000105  -0.000024
    14  C    0.001659   0.000198  -0.000200  -0.000001   0.002968   0.000111
    15  H   -0.000045   0.000002   0.000001   0.000000  -0.000010   0.000004
    16  C   -0.010541  -0.001926   0.001256   0.000009  -0.001668  -0.000151
    17  H   -0.004666   0.002180   0.000279  -0.000001   0.000480   0.000002
    18  H    0.000402  -0.000017  -0.000040  -0.000001   0.000010  -0.000001
    19  C    5.216118   0.436894   0.280880  -0.038842  -0.065629   0.010128
    20  H    0.436894   0.484840  -0.036774  -0.003755   0.003616  -0.000030
    21  C    0.280880  -0.036774   5.027939   0.427114   0.034440  -0.004701
    22  H   -0.038842  -0.003755   0.427114   0.496895   0.000046   0.000034
    23  C   -0.065629   0.003616   0.034440   0.000046   4.967991   0.462917
    24  H    0.010128  -0.000030  -0.004701   0.000034   0.462917   0.530710
    25  H   -0.007365  -0.000135   0.000740  -0.000104   0.397950  -0.021435
    26  C   -0.003021  -0.001372  -0.051899   0.005075   0.346545  -0.054586
    27  H   -0.003234   0.000041   0.005288  -0.000129  -0.042249  -0.000951
    28  H    0.010890   0.000011  -0.014379  -0.000452  -0.029371  -0.007349
              25         26         27         28
     1  C    0.005797   0.275217  -0.033272  -0.031841
     2  C   -0.048439  -0.067363   0.012472  -0.003569
     3  H   -0.000011  -0.031895  -0.004286   0.001231
     4  H   -0.001964   0.005539  -0.000084  -0.000224
     5  C    0.000785  -0.010544   0.000402  -0.004666
     6  C    0.003202   0.016945   0.000119   0.001420
     7  H    0.000412  -0.001927  -0.000017   0.002181
     8  H   -0.000523   0.000042   0.000493  -0.005225
     9  C   -0.000126  -0.001668   0.000010   0.000480
    10  H    0.000016   0.000068  -0.000000   0.000010
    11  H   -0.000032  -0.000151  -0.000001   0.000002
    12  C   -0.000148   0.001256  -0.000040   0.000279
    13  H   -0.000000   0.000009  -0.000001  -0.000001
    14  C   -0.000046  -0.000514   0.000003   0.000008
    15  H   -0.000001   0.000000   0.000000  -0.000000
    16  C    0.000068   0.000581  -0.000003  -0.000001
    17  H    0.000010  -0.000001   0.000001  -0.000013
    18  H   -0.000000  -0.000003  -0.000000   0.000001
    19  C   -0.007365  -0.003021  -0.003234   0.010890
    20  H   -0.000135  -0.001372   0.000041   0.000011
    21  C    0.000740  -0.051899   0.005288  -0.014379
    22  H   -0.000104   0.005075  -0.000129  -0.000452
    23  C    0.397950   0.346545  -0.042249  -0.029371
    24  H   -0.021435  -0.054586  -0.000951  -0.007349
    25  H    0.578501  -0.024931  -0.010161   0.006991
    26  C   -0.024931   4.958392   0.426436   0.395472
    27  H   -0.010161   0.426436   0.544687  -0.022861
    28  H    0.006991   0.395472  -0.022861   0.584647
          Atomic-Atomic Spin Densities.
               1          2          3          4          5          6
     1  C   -0.000003   0.000000   0.000000  -0.000000  -0.000000  -0.000000
     2  C    0.000000  -0.000001  -0.000000   0.000000  -0.000000   0.000000
     3  H    0.000000  -0.000000   0.000000   0.000000  -0.000000   0.000000
     4  H   -0.000000   0.000000   0.000000   0.000000   0.000000  -0.000000
     5  C   -0.000000  -0.000000  -0.000000   0.000000  -0.000001  -0.000000
     6  C   -0.000000   0.000000   0.000000  -0.000000  -0.000000   0.000001
     7  H    0.000000  -0.000000  -0.000000  -0.000000   0.000000  -0.000000
     8  H   -0.000000   0.000000  -0.000000  -0.000000   0.000000  -0.000000
     9  C    0.000000  -0.000000  -0.000000  -0.000000   0.000000  -0.000000
    10  H   -0.000000   0.000000  -0.000000  -0.000000  -0.000000  -0.000000
    11  H   -0.000000   0.000000   0.000000   0.000000   0.000000  -0.000000
    12  C    0.000000  -0.000000   0.000000   0.000000   0.000000   0.000000
    13  H    0.000000  -0.000000   0.000000  -0.000000   0.000000  -0.000000
    14  C    0.000000   0.000000  -0.000000   0.000000  -0.000000  -0.000000
    15  H    0.000000  -0.000000   0.000000   0.000000  -0.000000   0.000000
    16  C    0.000000   0.000000   0.000000  -0.000000  -0.000000   0.000000
    17  H   -0.000000   0.000000  -0.000000  -0.000000   0.000000  -0.000000
    18  H    0.000000  -0.000000   0.000000   0.000000  -0.000000   0.000000
    19  C    0.000000   0.000000   0.000000  -0.000000   0.000000   0.000000
    20  H   -0.000000   0.000000  -0.000000   0.000000   0.000000   0.000000
    21  C    0.000000  -0.000000  -0.000000   0.000000   0.000000   0.000000
    22  H   -0.000000   0.000000  -0.000000  -0.000000   0.000000   0.000000
    23  C   -0.000000   0.000000   0.000000  -0.000000   0.000000   0.000000
    24  H   -0.000000   0.000000  -0.000000   0.000000   0.000000  -0.000000
    25  H   -0.000000   0.000000  -0.000000  -0.000000  -0.000000   0.000000
    26  C    0.000000  -0.000000  -0.000000   0.000000   0.000000  -0.000000
    27  H    0.000000  -0.000000  -0.000000  -0.000000  -0.000000   0.000000
    28  H    0.000000   0.000000  -0.000000  -0.000000   0.000000  -0.000000
               7          8          9         10         11         12
     1  C    0.000000  -0.000000   0.000000  -0.000000  -0.000000   0.000000
     2  C   -0.000000   0.000000  -0.000000   0.000000   0.000000  -0.000000
     3  H   -0.000000  -0.000000  -0.000000  -0.000000   0.000000   0.000000
     4  H   -0.000000  -0.000000  -0.000000  -0.000000   0.000000   0.000000
     5  C    0.000000   0.000000   0.000000  -0.000000   0.000000   0.000000
     6  C   -0.000000  -0.000000  -0.000000  -0.000000  -0.000000   0.000000
     7  H    0.000000  -0.000000  -0.000000   0.000000  -0.000000  -0.000000
     8  H   -0.000000  -0.000000   0.000000   0.000000  -0.000000  -0.000000
     9  C   -0.000000   0.000000  -0.000000   0.000000   0.000000  -0.000000
    10  H    0.000000   0.000000   0.000000   0.000000  -0.000000  -0.000000
    11  H   -0.000000  -0.000000   0.000000  -0.000000   0.000000  -0.000000
    12  C   -0.000000  -0.000000  -0.000000  -0.000000  -0.000000  -0.000003
    13  H    0.000000   0.000000   0.000000   0.000000  -0.000000   0.000000
    14  C    0.000000   0.000000   0.000000   0.000000   0.000000  -0.000000
    15  H    0.000000  -0.000000  -0.000000   0.000000   0.000000   0.000000
    16  C   -0.000000  -0.000000   0.000000  -0.000000  -0.000000   0.000000
    17  H    0.000000   0.000000   0.000000   0.000000   0.000000  -0.000000
    18  H   -0.000000   0.000000  -0.000000  -0.000000   0.000000   0.000000
    19  C   -0.000000  -0.000000  -0.000000   0.000000  -0.000000  -0.000000
    20  H   -0.000000   0.000000  -0.000000   0.000000  -0.000000  -0.000000
    21  C    0.000000  -0.000000   0.000000  -0.000000  -0.000000   0.000000
    22  H    0.000000   0.000000   0.000000  -0.000000   0.000000  -0.000000
    23  C    0.000000  -0.000000   0.000000   0.000000  -0.000000  -0.000000
    24  H    0.000000  -0.000000   0.000000  -0.000000  -0.000000   0.000000
    25  H   -0.000000   0.000000  -0.000000  -0.000000   0.000000   0.000000
    26  C   -0.000000   0.000000   0.000000  -0.000000   0.000000   0.000000
    27  H    0.000000  -0.000000   0.000000   0.000000  -0.000000   0.000000
    28  H   -0.000000   0.000000  -0.000000   0.000000  -0.000000  -0.000000
              13         14         15         16         17         18
     1  C    0.000000   0.000000   0.000000   0.000000  -0.000000   0.000000
     2  C   -0.000000   0.000000  -0.000000   0.000000   0.000000  -0.000000
     3  H    0.000000  -0.000000   0.000000   0.000000  -0.000000   0.000000
     4  H   -0.000000   0.000000   0.000000  -0.000000  -0.000000   0.000000
     5  C    0.000000  -0.000000  -0.000000  -0.000000   0.000000  -0.000000
     6  C   -0.000000  -0.000000   0.000000   0.000000  -0.000000   0.000000
     7  H    0.000000   0.000000   0.000000  -0.000000   0.000000  -0.000000
     8  H    0.000000   0.000000  -0.000000  -0.000000   0.000000   0.000000
     9  C    0.000000   0.000000  -0.000000   0.000000   0.000000  -0.000000
    10  H    0.000000   0.000000   0.000000  -0.000000   0.000000  -0.000000
    11  H   -0.000000   0.000000   0.000000  -0.000000   0.000000   0.000000
    12  C    0.000000  -0.000000   0.000000   0.000000  -0.000000   0.000000
    13  H   -0.000000   0.000000   0.000000  -0.000000   0.000000   0.000000
[...]
     1  C   -0.000000   0.000000   0.000000   0.000000
     2  C    0.000000  -0.000000  -0.000000   0.000000
     3  H   -0.000000  -0.000000  -0.000000  -0.000000
     4  H   -0.000000   0.000000  -0.000000  -0.000000
     5  C   -0.000000   0.000000  -0.000000   0.000000
     6  C    0.000000  -0.000000   0.000000  -0.000000
     7  H   -0.000000  -0.000000   0.000000  -0.000000
     8  H    0.000000   0.000000  -0.000000   0.000000
     9  C   -0.000000   0.000000   0.000000  -0.000000
    10  H   -0.000000  -0.000000   0.000000   0.000000
    11  H    0.000000   0.000000  -0.000000  -0.000000
    12  C    0.000000   0.000000   0.000000  -0.000000
    13  H    0.000000   0.000000   0.000000  -0.000000
    14  C    0.000000  -0.000000  -0.000000   0.000000
    15  H    0.000000  -0.000000  -0.000000   0.000000
    16  C    0.000000   0.000000   0.000000  -0.000000
    17  H   -0.000000   0.000000   0.000000   0.000000
    18  H   -0.000000  -0.000000  -0.000000  -0.000000
    19  C    0.000000   0.000000   0.000000  -0.000000
    20  H   -0.000000   0.000000   0.000000  -0.000000
    21  C    0.000000  -0.000000  -0.000000   0.000000
    22  H   -0.000000   0.000000  -0.000000  -0.000000
    23  C   -0.000000  -0.000000   0.000000  -0.000000
    24  H    0.000000   0.000000  -0.000000  -0.000000
    25  H   -0.000000   0.000000   0.000000  -0.000000
    26  C    0.000000   0.000000  -0.000000  -0.000000
    27  H    0.000000  -0.000000  -0.000000   0.000000
    28  H   -0.000000  -0.000000   0.000000  -0.000000
 Mulliken charges and spin densities:
               1          2
     1  C   -0.209540  -0.000003
     2  C   -0.202190  -0.000001
     3  H    0.141785   0.000000
     4  H    0.173951   0.000000
     5  C   -0.143074  -0.000000
     6  C   -0.202254   0.000001
     7  H    0.152080   0.000000
     8  H    0.173928  -0.000000
     9  C   -0.205987  -0.000000
    10  H    0.120955   0.000000
    11  H    0.143673   0.000000
    12  C   -0.177993  -0.000003
    13  H    0.144554  -0.000000
    14  C   -0.209664   0.000003
    15  H    0.141784  -0.000000
    16  C   -0.181643  -0.000000
    17  H    0.116307   0.000000
    18  H    0.127326   0.000000
    19  C   -0.143232   0.000001
    20  H    0.152166  -0.000000
    21  C   -0.178131   0.000003
    22  H    0.144581   0.000000
    23  C   -0.205974   0.000000
    24  H    0.143680  -0.000000
    25  H    0.120947  -0.000000
    26  C   -0.181705   0.000000
    27  H    0.127338  -0.000000
    28  H    0.116330  -0.000000
 Sum of Mulliken charges =  -0.00000  -0.00000
 Mulliken charges and spin densities with hydrogens summed into heavy atoms:
               1          2
     1  C   -0.067754  -0.000003
     2  C   -0.028239  -0.000001
     5  C    0.009006  -0.000000
     6  C   -0.028326   0.000001
     9  C    0.058641  -0.000000
    12  C   -0.033439  -0.000003
    14  C   -0.067879   0.000003
    16  C    0.061991  -0.000000
    19  C    0.008935   0.000000
    21  C   -0.033550   0.000003
    23  C    0.058653   0.000000
    26  C    0.061963   0.000000
 Electronic spatial extent (au):  <R**2>=           2204.4262
 Charge=             -0.0000 electrons
 Dipole moment (field-independent basis, Debye):
    X=              0.0002    Y=             -0.0010    Z=             -0.0003  Tot=              0.0010
 Quadrupole moment (field-independent basis, Debye-Ang):
   XX=            -72.4284   YY=            -70.0327   ZZ=            -77.0532
   XY=             -3.2748   XZ=             -3.2010   YZ=             -1.3131
 Traceless Quadrupole moment (field-independent basis, Debye-Ang):
   XX=              0.7430   YY=              3.1388   ZZ=             -3.8818
   XY=             -3.2748   XZ=             -3.2010   YZ=             -1.3131
 Octapole moment (field-independent basis, Debye-Ang**2):
  XXX=              0.0068  YYY=             -0.0065  ZZZ=              0.0001  XYY=             -0.0024
  XXY=             -0.0039  XXZ=             -0.0027  XZZ=              0.0005  YZZ=             -0.0010
  YYZ=             -0.0015  XYZ=             -0.0016
 Hexadecapole moment (field-independent basis, Debye-Ang**3):
 XXXX=          -2041.0643 YYYY=           -625.2745 ZZZZ=           -332.0422 XXXY=           -101.3331
 XXXZ=           -119.2845 YYYX=            -57.8435 YYYZ=             -1.8397 ZZZX=            -68.9693
 ZZZY=            -11.2438 XXYY=           -442.2473 XXZZ=           -419.8634 YYZZ=           -174.7387
 XXYZ=            -20.2541 YYXZ=            -25.4564 ZZXY=            -42.0379
 N-N= 6.900920245776D+02 E-N=-2.461976829274D+03  KE= 4.642957949057D+02
                          Isotropic Fermi Contact Couplings
        Atom                 a.u.       MegaHertz       Gauss      10(-4) cm-1
     1  C(13)             -0.00000      -0.00026      -0.00009      -0.00009
     2  C(13)             -0.00000      -0.00029      -0.00011      -0.00010
     3  H(1)               0.00000       0.00017       0.00006       0.00006
     4  H(1)               0.00000       0.00025       0.00009       0.00008
     5  C(13)             -0.00000      -0.00006      -0.00002      -0.00002
     6  C(13)              0.00000       0.00029       0.00010       0.00010
     7  H(1)               0.00000       0.00008       0.00003       0.00003
     8  H(1)              -0.00000      -0.00025      -0.00009      -0.00008
     9  C(13)             -0.00000      -0.00012      -0.00004      -0.00004
    10  H(1)               0.00000       0.00013       0.00005       0.00004
    11  H(1)               0.00000       0.00002       0.00001       0.00001
    12  C(13)             -0.00000      -0.00018      -0.00006      -0.00006
    13  H(1)               0.00000       0.00003       0.00001       0.00001
    14  C(13)              0.00000       0.00027       0.00010       0.00009
    15  H(1)              -0.00000      -0.00017      -0.00006      -0.00006
    16  C(13)             -0.00000      -0.00011      -0.00004      -0.00004
    17  H(1)               0.00000       0.00018       0.00007       0.00006
    18  H(1)               0.00000       0.00007       0.00003       0.00002
    19  C(13)              0.00000       0.00006       0.00002       0.00002
    20  H(1)              -0.00000      -0.00008      -0.00003      -0.00003
    21  C(13)              0.00000       0.00017       0.00006       0.00006
    22  H(1)              -0.00000      -0.00003      -0.00001      -0.00001
    23  C(13)              0.00000       0.00012       0.00004       0.00004
    24  H(1)              -0.00000      -0.00002      -0.00001      -0.00001
    25  H(1)              -0.00000      -0.00013      -0.00005      -0.00004
    26  C(13)              0.00000       0.00010       0.00004       0.00003
    27  H(1)              -0.00000      -0.00007      -0.00002      -0.00002
    28  H(1)              -0.00000      -0.00018      -0.00006      -0.00006
 --------------------------------------------------------
       Center         ----  Spin Dipole Couplings  ----
                      3XX-RR        3YY-RR        3ZZ-RR
 --------------------------------------------------------
     1   Atom        0.000000      0.000001     -0.000002
     2   Atom        0.000000      0.000000     -0.000000
     3   Atom       -0.000000      0.000000     -0.000000
     4   Atom       -0.000000      0.000000      0.000000
     5   Atom        0.000000      0.000000     -0.000000
     6   Atom       -0.000000     -0.000000      0.000000
     7   Atom       -0.000000      0.000000      0.000000
     8   Atom        0.000000     -0.000000     -0.000000
     9   Atom        0.000000     -0.000000      0.000000
    10   Atom        0.000000      0.000000     -0.000000
    11   Atom        0.000000     -0.000000      0.000000
    12   Atom        0.000001      0.000002     -0.000002
    13   Atom        0.000000     -0.000000     -0.000000
    14   Atom       -0.000000     -0.000001      0.000002
    15   Atom        0.000000     -0.000000      0.000000
    16   Atom        0.000000     -0.000000      0.000000
    17   Atom        0.000000      0.000000     -0.000000
    18   Atom       -0.000000      0.000000     -0.000000
    19   Atom       -0.000000     -0.000000      0.000000
    20   Atom        0.000000     -0.000000     -0.000000
    21   Atom       -0.000001     -0.000001      0.000002
    22   Atom       -0.000000      0.000000      0.000000
    23   Atom       -0.000000      0.000000     -0.000000
    24   Atom       -0.000000      0.000000     -0.000000
    25   Atom       -0.000000     -0.000000      0.000000
    26   Atom       -0.000000      0.000000     -0.000000
    27   Atom        0.000000     -0.000000      0.000000
    28   Atom       -0.000000     -0.000000      0.000000
 --------------------------------------------------------
                        XY            XZ            YZ
 --------------------------------------------------------
     1   Atom       -0.000000     -0.000002      0.000000
     2   Atom        0.000000      0.000000      0.000000
     3   Atom       -0.000000      0.000000      0.000000
     4   Atom       -0.000000      0.000000      0.000000
     5   Atom        0.000000     -0.000000      0.000000
     6   Atom       -0.000000     -0.000000     -0.000000
     7   Atom        0.000000      0.000000     -0.000000
     8   Atom        0.000000     -0.000000     -0.000000
     9   Atom        0.000000     -0.000000      0.000000
    10   Atom        0.000000     -0.000000     -0.000000
    11   Atom       -0.000000     -0.000000     -0.000000
    12   Atom        0.000000     -0.000002      0.000000
    13   Atom       -0.000000     -0.000000      0.000000
    14   Atom        0.000000      0.000002     -0.000000
    15   Atom        0.000000     -0.000000     -0.000000
    16   Atom       -0.000000     -0.000000     -0.000000
    17   Atom        0.000000     -0.000000     -0.000000
    18   Atom        0.000000     -0.000000     -0.000000
    19   Atom       -0.000000      0.000000     -0.000000
    20   Atom       -0.000000     -0.000000      0.000000
    21   Atom       -0.000000      0.000002     -0.000000
    22   Atom        0.000000      0.000000     -0.000000
    23   Atom       -0.000000      0.000000     -0.000000
    24   Atom        0.000000      0.000000      0.000000
    25   Atom       -0.000000      0.000000      0.000000
    26   Atom        0.000000      0.000000      0.000000
    27   Atom       -0.000000      0.000000      0.000000
    28   Atom       -0.000000      0.000000      0.000000
 --------------------------------------------------------


 ---------------------------------------------------------------------------------
              Anisotropic Spin Dipole Couplings in Principal Axis System
 ---------------------------------------------------------------------------------

       Atom             a.u.   MegaHertz   Gauss  10(-4) cm-1        Axes

              Baa    -0.0000    -0.000    -0.000    -0.000  0.4483 -0.0059  0.8939
     1 C(13)  Bbb     0.0000     0.000     0.000     0.000  0.7941  0.4617 -0.3952
              Bcc     0.0000     0.000     0.000     0.000 -0.4103  0.8870  0.2117
 
              Baa    -0.0000    -0.000    -0.000    -0.000 -0.5171  0.0688  0.8531
     2 C(13)  Bbb    -0.0000    -0.000    -0.000    -0.000 -0.6076  0.6725 -0.4225
              Bcc     0.0000     0.000     0.000     0.000  0.6028  0.7369  0.3060
 
              Baa    -0.0000    -0.000    -0.000    -0.000  0.8720  0.1958 -0.4485
     3 H(1)   Bbb     0.0000     0.000     0.000     0.000  0.4583 -0.0053  0.8888
              Bcc     0.0000     0.000     0.000     0.000 -0.1717  0.9806  0.0943
 
              Baa    -0.0000    -0.000    -0.000    -0.000  0.9391  0.1002 -0.3287
     4 H(1)   Bbb     0.0000     0.000     0.000     0.000  0.0798  0.8668  0.4921
              Bcc     0.0000     0.000     0.000     0.000  0.3343 -0.4884  0.8061
 
              Baa    -0.0000    -0.000    -0.000    -0.000  0.4492 -0.0439  0.8924
     5 C(13)  Bbb     0.0000     0.000     0.000     0.000  0.0974  0.9952 -0.0001
              Bcc     0.0000     0.000     0.000     0.000  0.8881 -0.0870 -0.4513
 
              Baa    -0.0000    -0.000    -0.000    -0.000  0.6241  0.6825  0.3804
     6 C(13)  Bbb     0.0000     0.000     0.000     0.000 -0.5184  0.7260 -0.4519
              Bcc     0.0000     0.000     0.000     0.000 -0.5845  0.0848  0.8069
 
              Baa    -0.0000    -0.000    -0.000    -0.000  0.6804 -0.6101 -0.4060
     7 H(1)   Bbb     0.0000     0.000     0.000     0.000  0.5920  0.1310  0.7952
              Bcc     0.0000     0.000     0.000     0.000  0.4320  0.7814 -0.4503
 
              Baa    -0.0000    -0.000    -0.000    -0.000  0.3369 -0.3248  0.8838
     8 H(1)   Bbb    -0.0000    -0.000    -0.000    -0.000  0.0146  0.9403  0.3400
              Bcc     0.0000     0.000     0.000     0.000  0.9414  0.1016 -0.3215
 
              Baa    -0.0000    -0.000    -0.000    -0.000 -0.6350  0.7266 -0.2624
     9 C(13)  Bbb     0.0000     0.000     0.000     0.000  0.1315  0.4364  0.8901
              Bcc     0.0000     0.000     0.000     0.000  0.7612  0.5307 -0.3727
 
              Baa    -0.0000    -0.000    -0.000    -0.000  0.5006  0.0038  0.8657
    10 H(1)   Bbb     0.0000     0.000     0.000     0.000 -0.2381  0.9620  0.1334
              Bcc     0.0000     0.000     0.000     0.000  0.8323  0.2729 -0.4825
 
              Baa    -0.0000    -0.000    -0.000    -0.000  0.2987  0.9543  0.0123
    11 H(1)   Bbb     0.0000     0.000     0.000     0.000  0.9522 -0.2989  0.0629
              Bcc     0.0000     0.000     0.000     0.000 -0.0637  0.0071  0.9979
 
              Baa    -0.0000    -0.000    -0.000    -0.000  0.4028 -0.0337  0.9147
    12 C(13)  Bbb     0.0000     0.000     0.000     0.000  0.9039 -0.1423 -0.4033
              Bcc     0.0000     0.000     0.000     0.000  0.1438  0.9892 -0.0269
 
              Baa    -0.0000    -0.000    -0.000    -0.000  0.5108  0.8410 -0.1780
    13 H(1)   Bbb    -0.0000    -0.000    -0.000    -0.000  0.3985 -0.0481  0.9159
              Bcc     0.0000     0.000     0.000     0.000  0.7617 -0.5388 -0.3598
 
              Baa    -0.0000    -0.000    -0.000    -0.000 -0.4112  0.8864  0.2127
    14 C(13)  Bbb    -0.0000    -0.000    -0.000    -0.000  0.7937  0.4629 -0.3947
              Bcc     0.0000     0.000     0.000     0.000  0.4483 -0.0065  0.8938
 
              Baa    -0.0000    -0.000    -0.000    -0.000 -0.1710  0.9808  0.0943
    15 H(1)   Bbb    -0.0000    -0.000    -0.000    -0.000  0.4587 -0.0054  0.8886
              Bcc     0.0000     0.000     0.000     0.000  0.8720  0.1952 -0.4489
 
              Baa    -0.0000    -0.000    -0.000    -0.000  0.2381  0.9474  0.2139
    16 C(13)  Bbb     0.0000     0.000     0.000     0.000  0.6537 -0.3192  0.6862
              Bcc     0.0000     0.000     0.000     0.000  0.7183 -0.0235 -0.6953
 
              Baa    -0.0000    -0.000    -0.000    -0.000  0.0796  0.0850  0.9932
    17 H(1)   Bbb     0.0000     0.000     0.000     0.000  0.7942 -0.6076 -0.0117
              Bcc     0.0000     0.000     0.000     0.000  0.6024  0.7897 -0.1159
 
              Baa    -0.0000    -0.000    -0.000    -0.000  0.9560 -0.1412  0.2573
    18 H(1)   Bbb    -0.0000    -0.000    -0.000    -0.000 -0.2124  0.2720  0.9385
              Bcc     0.0000     0.000     0.000     0.000  0.2025  0.9519 -0.2301
 
              Baa    -0.0000    -0.000    -0.000    -0.000  0.8935 -0.0539 -0.4458
    19 C(13)  Bbb    -0.0000    -0.000    -0.000    -0.000  0.0654  0.9978  0.0105
              Bcc     0.0000     0.000     0.000     0.000  0.4443 -0.0385  0.8951
 
              Baa    -0.0000    -0.000    -0.000    -0.000  0.4564  0.7789 -0.4301
    20 H(1)   Bbb    -0.0000    -0.000    -0.000    -0.000  0.5773  0.1086  0.8093
              Bcc     0.0000     0.000     0.000     0.000  0.6770 -0.6177 -0.4001
 
              Baa    -0.0000    -0.000    -0.000    -0.000  0.1567  0.9871 -0.0326
    21 C(13)  Bbb    -0.0000    -0.000    -0.000    -0.000  0.9019 -0.1565 -0.4027
              Bcc     0.0000     0.000     0.000     0.000  0.4026 -0.0337  0.9148
 
              Baa    -0.0000    -0.000    -0.000    -0.000  0.7610 -0.5401 -0.3594
    22 H(1)   Bbb     0.0000     0.000     0.000     0.000  0.3981 -0.0486  0.9160
              Bcc     0.0000     0.000     0.000     0.000  0.5122  0.8402 -0.1780
 
              Baa    -0.0000    -0.000    -0.000    -0.000  0.7606  0.5307 -0.3740
    23 C(13)  Bbb    -0.0000    -0.000    -0.000    -0.000  0.1358  0.4332  0.8910
              Bcc     0.0000     0.000     0.000     0.000 -0.6349  0.7285 -0.2574
 
              Baa    -0.0000    -0.000    -0.000    -0.000  0.0023 -0.0168  0.9999
    24 H(1)   Bbb    -0.0000    -0.000    -0.000    -0.000  0.9462 -0.3236 -0.0077
              Bcc     0.0000     0.000     0.000     0.000  0.3236  0.9461  0.0151
 
              Baa    -0.0000    -0.000    -0.000    -0.000  0.8370  0.2636 -0.4796
    25 H(1)   Bbb    -0.0000    -0.000    -0.000    -0.000 -0.2344  0.9646  0.1211
              Bcc     0.0000     0.000     0.000     0.000  0.4945  0.0110  0.8691
 
              Baa    -0.0000    -0.000    -0.000    -0.000  0.7206 -0.0258 -0.6929
    26 C(13)  Bbb    -0.0000    -0.000    -0.000    -0.000  0.6502 -0.3220  0.6882
              Bcc     0.0000     0.000     0.000     0.000  0.2408  0.9464  0.2153
 
              Baa    -0.0000    -0.000    -0.000    -0.000  0.2038  0.9515 -0.2303
    27 H(1)   Bbb     0.0000     0.000     0.000     0.000 -0.2166  0.2732  0.9373
              Bcc     0.0000     0.000     0.000     0.000  0.9548 -0.1411  0.2617
 
              Baa    -0.0000    -0.000    -0.000    -0.000  0.6076  0.7852 -0.1193
    28 H(1)   Bbb    -0.0000    -0.000    -0.000    -0.000  0.7898 -0.6132 -0.0139
              Bcc     0.0000     0.000     0.000     0.000  0.0841  0.0858  0.9928
 

 ---------------------------------------------------------------------------------

 No NMR shielding tensors so no spin-rotation constants.
 Leave Link  601 at Mon Aug  3 15:54:34 2020, MaxMem=  6442450944 cpu:               7.9 elap:               0.4
 (Enter /scratch/scicomp/CentOS/7.3.1611/Haswell/software/Gaussian/g16/l9999.exe)
 1\1\GINC-ATLAS-205\SP\UwB97XD\def2TZVP\C12H16\BOCHEN\03-Aug-2020\0\\#p
  uwb97xd guess=mix def2tzvp # scrf=(iefpcm,solvent=Cyclohexane,read) n
 osym 6d 10f\\endo-2 xp-pcm for eta=3\\0,1\C,0,-3.119292,-0.437085,0.24
 7292\C,0,-0.56937,-0.202476,-0.95934\H,0,-4.083426,-0.54976,0.729383\H
 ,0,0.380387,-0.117904,-1.468298\C,0,1.091078,1.405545,0.692127\C,0,0.5
 6937,0.202476,0.95934\H,0,0.517151,2.308513,0.856707\H,0,-0.380387,0.1
 17904,1.468298\C,0,1.469648,-0.999582,0.9933\H,0,1.920562,-0.988028,1.
 993185\H,0,0.906483,-1.928611,0.921226\C,0,2.419739,1.515988,0.111913\
 H,0,2.828521,2.505149,-0.057522\C,0,3.119292,0.437085,-0.247292\H,0,4.
 083426,0.54976,-0.729383\C,0,2.591527,-0.957486,-0.04532\H,0,2.251568,
 -1.354671,-1.0098\H,0,3.400483,-1.619871,0.270232\C,0,-1.091078,-1.405
 545,-0.692127\H,0,-0.517151,-2.308513,-0.856707\C,0,-2.419738,-1.51598
 8,-0.111913\H,0,-2.828521,-2.505149,0.057522\C,0,-1.469648,0.999582,-0
 .9933\H,0,-0.906482,1.928611,-0.921226\H,0,-1.920562,0.988028,-1.99318
 5\C,0,-2.591527,0.957486,0.04532\H,0,-3.400483,1.619871,-0.270232\H,0,
 -2.251568,1.354671,1.0098\\Version=ES64L-G16RevB.01\HF=-466.8319537\S2
 =0.\S2-1=0.\S2A=0.\RMSD=7.284e-09\Dipole=0.0000653,-0.0003783,-0.00011
 26\Quadrupole=0.5524189,2.3335933,-2.8860122,-2.4347036,-2.3798731,-0.
 976276\PG=CI [X(C12H16)]\\@


 MY GROUP MEETINGS AREN'T VERY STRUCTURED.
     -- PROF. M. S. GORDON, OCT. 5, 1984
 Job cpu time:       0 days  2 hours 15 minutes 58.7 seconds.
 Elapsed time:       0 days  0 hours  5 minutes 43.2 seconds.
 File lengths (MBytes):  RWF=    632 Int=      0 D2E=      0 Chk=     23 Scr=      1
 Normal termination of Gaussian 16 at Mon Aug  3 15:54:34 2020.
