 Entering Gaussian System, Link 0=g16
 Input=meso-TS_46_2_xp-Vc.com
 Output=meso-TS_46_2_xp-Vc.log
 Initial command:
 /scratch/scicomp/CentOS/7.3.1611/Haswell/software/Gaussian/g16/l1.exe "/scratch/bochen/cyclohexadiene-dimerization/wb97xd-def2tzvp/xp-pcm/meso/Gau-86213.inp" -scrdir="/scratch/bochen/cyclohexadiene-dimerization/wb97xd-def2tzvp/xp-pcm/meso/"
 Entering Link 1 = /scratch/scicomp/CentOS/7.3.1611/Haswell/software/Gaussian/g16/l1.exe PID=     86216.
  
 Copyright (c) 1988-2017, Gaussian, Inc.  All Rights Reserved.
  
 This is part of the Gaussian(R) 16 program.  It is based on
 the Gaussian(R) 09 system (copyright 2009, Gaussian, Inc.),
 the Gaussian(R) 03 system (copyright 2003, Gaussian, Inc.),
 the Gaussian(R) 98 system (copyright 1998, Gaussian, Inc.),
 the Gaussian(R) 94 system (copyright 1995, Gaussian, Inc.),
 the Gaussian 92(TM) system (copyright 1992, Gaussian, Inc.),
 the Gaussian 90(TM) system (copyright 1990, Gaussian, Inc.),
 the Gaussian 88(TM) system (copyright 1988, Gaussian, Inc.),
 the Gaussian 86(TM) system (copyright 1986, Carnegie Mellon
 University), and the Gaussian 82(TM) system (copyright 1983,
 Carnegie Mellon University). Gaussian is a federally registered
 trademark of Gaussian, Inc.
  
 This software contains proprietary and confidential information,
 including trade secrets, belonging to Gaussian, Inc.
  
 This software is provided under written license and may be
 used, copied, transmitted, or stored only in accord with that
 written license.
  
 The following legend is applicable only to US Government
 contracts under FAR:
  
                    RESTRICTED RIGHTS LEGEND
  
 Use, reproduction and disclosure by the US Government is
 subject to restrictions as set forth in subparagraphs (a)
 and (c) of the Commercial Computer Software - Restricted
 Rights clause in FAR 52.227-19.
  
 Gaussian, Inc.
 340 Quinnipiac St., Bldg. 40, Wallingford CT 06492
  
  
 ---------------------------------------------------------------
 Warning -- This program may not be used in any manner that
 competes with the business of Gaussian, Inc. or will provide
 assistance to any competitor of Gaussian, Inc.  The licensee
 of this program is prohibited from giving any competitor of
 Gaussian, Inc. access to this program.  By using this program,
 the user acknowledges that Gaussian, Inc. is engaged in the
 business of creating and licensing software in the field of
 computational chemistry and represents and warrants to the
 licensee that it is not a competitor of Gaussian, Inc. and that
 it will not use this program in any manner prohibited above.
 ---------------------------------------------------------------
  

 Cite this work as:
 Gaussian 16, Revision B.01,
 M. J. Frisch, G. W. Trucks, H. B. Schlegel, G. E. Scuseria, 
 M. A. Robb, J. R. Cheeseman, G. Scalmani, V. Barone, 
 G. A. Petersson, H. Nakatsuji, X. Li, M. Caricato, A. V. Marenich, 
 J. Bloino, B. G. Janesko, R. Gomperts, B. Mennucci, H. P. Hratchian, 
 J. V. Ortiz, A. F. Izmaylov, J. L. Sonnenberg, D. Williams-Young, 
 F. Ding, F. Lipparini, F. Egidi, J. Goings, B. Peng, A. Petrone, 
 T. Henderson, D. Ranasinghe, V. G. Zakrzewski, J. Gao, N. Rega, 
 G. Zheng, W. Liang, M. Hada, M. Ehara, K. Toyota, R. Fukuda, 
 J. Hasegawa, M. Ishida, T. Nakajima, Y. Honda, O. Kitao, H. Nakai, 
 T. Vreven, K. Throssell, J. A. Montgomery, Jr., J. E. Peralta, 
 F. Ogliaro, M. J. Bearpark, J. J. Heyd, E. N. Brothers, K. N. Kudin, 
 V. N. Staroverov, T. A. Keith, R. Kobayashi, J. Normand, 
 K. Raghavachari, A. P. Rendell, J. C. Burant, S. S. Iyengar, 
 J. Tomasi, M. Cossi, J. M. Millam, M. Klene, C. Adamo, R. Cammi, 
 J. W. Ochterski, R. L. Martin, K. Morokuma, O. Farkas, 
 J. B. Foresman, and D. J. Fox, Gaussian, Inc., Wallingford CT, 2016.
 
 ******************************************
 Gaussian 16:  ES64L-G16RevB.01 20-Dec-2017
                 3-Aug-2020 
 ******************************************
 %chk=meso-TS_46_2_xp-12.chk
 %nproc=24
 Will use up to   24 processors via shared memory.
 %mem=48GB
 ----------------------------------------------------------------------
 #p uwb97xd guess=mix def2tzvp # scrf=(iefpcm,solvent=Cyclohexane,read)
  nosym guess=only pop=none
 ----------------------------------------------------------------------
 1/38=1,40=2,172=1/1;
 2/12=2,15=1,17=6,18=5,40=1/2;
 3/5=44,7=101,11=2,25=1,30=1,70=2203,72=17,74=-58,89=1,116=2/1,2;
 4/13=-1/1;
 99/5=2/99;
 Leave Link    1 at Mon Aug  3 17:23:38 2020, MaxMem=  6442450944 cpu:               2.0 elap:               0.1
 (Enter /scratch/scicomp/CentOS/7.3.1611/Haswell/software/Gaussian/g16/l101.exe)
 -----------------------
 endo-2 xp-pcm for eta=3
 -----------------------
 Symbolic Z-matrix:
 Charge =  0 Multiplicity = 1
 6                    -3.12768  -0.44142   0.25896 
 6                    -0.70838  -0.24553  -1.20242 
 1                    -4.07655  -0.53685   0.77411 
 1                     0.24896  -0.16047  -1.70099 
 6                     1.15231   1.4227    0.77243 
 6                     0.70838   0.24553   1.20242 
 1                     0.55899   2.31927   0.90552 
 1                    -0.24896   0.16047   1.70099 
 6                     1.54502  -0.9962    1.09283 
 1                     2.05966  -1.12686   2.05325 
 1                     0.90429  -1.87      0.9742 
 6                     2.45008   1.52831   0.10644 
 1                     2.85095   2.51433  -0.09607 
 6                     3.12768   0.44142  -0.25896 
 1                     4.07655   0.53685  -0.77411 
 6                     2.57933  -0.94193  -0.03718 
 1                     2.13576  -1.29167  -0.97757 
 1                     3.39266  -1.63764   0.17829 
 6                    -1.15231  -1.4227   -0.77243 
 1                    -0.55899  -2.31927  -0.90552 
 6                    -2.45008  -1.52831  -0.10644 
 1                    -2.85095  -2.51433   0.09607 
 6                    -1.54502   0.9962   -1.09283 
 1                    -0.90429   1.87     -0.9742 
 1                    -2.05966   1.12686  -2.05325 
 6                    -2.57933   0.94193   0.03718 
 1                    -3.39266   1.63764  -0.17829 
 1                    -2.13576   1.29167   0.97757 
 
 ITRead=  0  0  0  0  0  0  0  0  0  0  0  0  0  0  0  0  0  0  0  0
 ITRead=  0  0  0  0  0  0  0  0
 MicOpt= -1 -1 -1 -1 -1 -1 -1 -1 -1 -1 -1 -1 -1 -1 -1 -1 -1 -1 -1 -1
 MicOpt= -1 -1 -1 -1 -1 -1 -1 -1
 NAtoms=     28 NQM=       28 NQMF=       0 NMMI=      0 NMMIF=      0
                NMic=       0 NMicF=      0.
                    Isotopes and Nuclear Properties:
 (Nuclear quadrupole moments (NQMom) in fm**2, nuclear magnetic moments (NMagM)
  in nuclear magnetons)

  Atom         1           2           3           4           5           6           7           8           9          10
 IAtWgt=          12          12           1           1          12          12           1           1          12           1
 AtmWgt=  12.0000000  12.0000000   1.0078250   1.0078250  12.0000000  12.0000000   1.0078250   1.0078250  12.0000000   1.0078250
 NucSpn=           0           0           1           1           0           0           1           1           0           1
 AtZEff=  -0.0000000  -0.0000000  -0.0000000  -0.0000000  -0.0000000  -0.0000000  -0.0000000  -0.0000000  -0.0000000  -0.0000000
 NQMom=    0.0000000   0.0000000   0.0000000   0.0000000   0.0000000   0.0000000   0.0000000   0.0000000   0.0000000   0.0000000
 NMagM=    0.0000000   0.0000000   2.7928460   2.7928460   0.0000000   0.0000000   2.7928460   2.7928460   0.0000000   2.7928460
 AtZNuc=   6.0000000   6.0000000   1.0000000   1.0000000   6.0000000   6.0000000   1.0000000   1.0000000   6.0000000   1.0000000

  Atom        11          12          13          14          15          16          17          18          19          20
 IAtWgt=           1          12           1          12           1          12           1           1          12           1
 AtmWgt=   1.0078250  12.0000000   1.0078250  12.0000000   1.0078250  12.0000000   1.0078250   1.0078250  12.0000000   1.0078250
 NucSpn=           1           0           1           0           1           0           1           1           0           1
 AtZEff=  -0.0000000  -0.0000000  -0.0000000  -0.0000000  -0.0000000  -0.0000000  -0.0000000  -0.0000000  -0.0000000  -0.0000000
 NQMom=    0.0000000   0.0000000   0.0000000   0.0000000   0.0000000   0.0000000   0.0000000   0.0000000   0.0000000   0.0000000
 NMagM=    2.7928460   0.0000000   2.7928460   0.0000000   2.7928460   0.0000000   2.7928460   2.7928460   0.0000000   2.7928460
 AtZNuc=   1.0000000   6.0000000   1.0000000   6.0000000   1.0000000   6.0000000   1.0000000   1.0000000   6.0000000   1.0000000

  Atom        21          22          23          24          25          26          27          28
 IAtWgt=          12           1          12           1           1          12           1           1
 AtmWgt=  12.0000000   1.0078250  12.0000000   1.0078250   1.0078250  12.0000000   1.0078250   1.0078250
 NucSpn=           0           1           0           1           1           0           1           1
 AtZEff=  -0.0000000  -0.0000000  -0.0000000  -0.0000000  -0.0000000  -0.0000000  -0.0000000  -0.0000000
 NQMom=    0.0000000   0.0000000   0.0000000   0.0000000   0.0000000   0.0000000   0.0000000   0.0000000
 NMagM=    0.0000000   2.7928460   0.0000000   2.7928460   2.7928460   0.0000000   2.7928460   2.7928460
 AtZNuc=   6.0000000   1.0000000   6.0000000   1.0000000   1.0000000   6.0000000   1.0000000   1.0000000
 Leave Link  101 at Mon Aug  3 17:23:38 2020, MaxMem=  6442450944 cpu:               2.4 elap:               0.1
 (Enter /scratch/scicomp/CentOS/7.3.1611/Haswell/software/Gaussian/g16/l202.exe)
                          Input orientation:                          
 ---------------------------------------------------------------------
 Center     Atomic      Atomic             Coordinates (Angstroms)
 Number     Number       Type             X           Y           Z
 ---------------------------------------------------------------------
      1          6           0       -3.127681   -0.441423    0.258958
      2          6           0       -0.708381   -0.245534   -1.202422
      3          1           0       -4.076548   -0.536846    0.774111
      4          1           0        0.248962   -0.160472   -1.700991
      5          6           0        1.152306    1.422704    0.772430
      6          6           0        0.708381    0.245534    1.202422
      7          1           0        0.558988    2.319273    0.905524
      8          1           0       -0.248962    0.160472    1.700991
      9          6           0        1.545018   -0.996200    1.092829
     10          1           0        2.059657   -1.126856    2.053246
     11          1           0        0.904290   -1.869997    0.974198
     12          6           0        2.450083    1.528310    0.106435
     13          1           0        2.850945    2.514335   -0.096069
     14          6           0        3.127681    0.441423   -0.258958
     15          1           0        4.076548    0.536846   -0.774111
     16          6           0        2.579330   -0.941931   -0.037180
     17          1           0        2.135763   -1.291670   -0.977567
     18          1           0        3.392662   -1.637636    0.178291
     19          6           0       -1.152306   -1.422704   -0.772430
     20          1           0       -0.558988   -2.319273   -0.905524
     21          6           0       -2.450083   -1.528310   -0.106435
     22          1           0       -2.850945   -2.514335    0.096069
     23          6           0       -1.545018    0.996200   -1.092829
     24          1           0       -0.904290    1.869997   -0.974198
     25          1           0       -2.059657    1.126856   -2.053246
     26          6           0       -2.579330    0.941931    0.037180
     27          1           0       -3.392662    1.637636   -0.178291
     28          1           0       -2.135763    1.291670    0.977567
 ---------------------------------------------------------------------
                    Distance matrix (angstroms):
                    1          2          3          4          5
     1  C    0.000000
     2  C    2.833199   0.000000
     3  H    1.083899   3.916133   0.000000
     4  H    3.914339   1.082734   4.997782   0.000000
     5  C    4.696479   3.185155   5.583973   3.072505   0.000000
     6  C    4.009664   2.834014   4.867352   2.967442   1.329546
     7  H    4.650916   3.553575   5.446364   3.610979   1.083317
     8  H    3.275479   2.967442   3.999472   3.453175   2.102143
     9  C    4.778832   3.302951   5.649300   3.191180   2.471432
    10  H    5.531525   4.363271   6.295817   4.278646   2.993999
    11  H    4.336955   3.158680   5.160046   3.241692   3.308187
    12  C    5.917310   3.851691   6.878050   3.311149   1.462507
    13  H    6.678811   4.637855   7.619520   4.062103   2.198027
    14  C    6.338549   4.009664   7.343375   3.275479   2.434909
    15  H    7.343375   4.867352   8.367962   3.999472   3.424577
    16  C    5.736565   3.556937   6.717365   2.968090   2.878083
    17  H    5.473185   3.038769   6.498534   2.315809   3.376019
    18  H    6.629654   4.545643   7.573364   3.949249   3.838994
    19  C    2.434909   1.329546   3.424577   2.102143   3.974189
    20  H    3.388292   2.100205   4.286193   2.438437   4.443698
    21  C    1.331906   2.424918   2.098512   3.420297   4.738997
    22  H    2.097637   3.379958   2.423284   4.287134   5.655419
    23  C    2.529607   1.501291   3.499191   2.219485   3.307061
    24  H    3.436103   2.136806   4.348873   2.445613   2.735026
    25  H    2.991064   2.105541   3.850935   2.666649   4.288202
    26  C    1.504507   2.539121   2.229688   3.497966   3.833646
    27  H    2.141002   3.435191   2.470454   4.337422   4.648312
    28  H    2.122242   3.025354   2.674231   3.869148   3.297067
                    6          7          8          9         10
     6  C    0.000000
     7  H    2.100205   0.000000
     8  H    1.082734   2.438437   0.000000
     9  C    1.501291   3.464058   2.219485   0.000000
    10  H    2.105541   3.930023   2.666649   1.097417   0.000000
    11  H    2.136806   4.204038   2.445613   1.090012   1.746847
    12  C    2.424918   2.200092   3.420297   2.857493   3.315481
    13  H    3.379958   2.508845   4.287134   3.929730   4.301623
    14  C    2.833199   3.388292   3.914339   2.529607   2.991064
    15  H    3.916133   4.286193   4.997782   3.499191   3.850935
    16  C    2.539121   3.950433   3.497966   1.532862   2.161976
    17  H    3.025354   4.367054   3.869148   2.173205   3.036245
    18  H    3.435191   4.920946   4.337422   2.159076   2.356534
    19  C    3.185155   4.443698   3.072505   3.307061   4.288202
    20  H    3.553575   5.103516   3.610979   3.189166   4.127164
    21  C    3.851691   4.988233   3.311149   4.205022   5.016288
    22  H    4.637855   5.970480   4.062103   4.756338   5.465314
    23  C    3.302951   3.189166   3.191180   4.277275   5.234390
    24  H    3.158680   2.424126   3.241692   4.299627   5.189559
    25  H    4.363271   4.127164   4.278646   5.234390   6.237888
    26  C    3.556937   3.535553   2.968090   4.677712   5.464852
    27  H    4.545643   4.153892   3.949249   5.738774   6.507684
    28  H    3.038769   2.884933   2.315809   4.335410   4.960635
                   11         12         13         14         15
    11  H    0.000000
    12  C    3.832881   0.000000
    13  H    4.915008   1.083487   0.000000
    14  C    3.436103   1.331906   2.097637   0.000000
    15  H    4.348873   2.098512   2.423284   1.083899   0.000000
    16  C    2.165629   2.477785   3.467422   1.504507   2.229688
    17  H    2.379154   3.037457   3.971674   2.122242   2.674231
    18  H    2.622871   3.304063   4.196140   2.141002   2.470454
    19  C    2.735026   4.738997   5.655419   4.696479   5.583973
    20  H    2.424126   4.988233   5.970480   4.650916   5.446364
    21  C    3.540669   5.779262   6.666632   5.917310   6.878050
    22  H    3.909996   6.666632   7.604998   6.678811   7.619520
    23  C    4.299627   4.205022   4.756338   4.778832   5.649300
    24  H    4.588547   3.540669   3.909996   4.336955   5.160046
    25  H    5.189559   5.016288   5.465314   5.531525   6.295817
    26  C    4.573899   5.063954   5.654918   5.736565   6.717365
    27  H    5.665291   5.850700   6.305394   6.629654   7.573364
    28  H    4.386123   4.673848   5.245461   5.473185   6.498534
                   16         17         18         19         20
    16  C    0.000000
    17  H    1.096994   0.000000
    18  H    1.091761   1.742267   0.000000
    19  C    3.833646   3.297067   4.648312   0.000000
    20  H    3.535553   2.884933   4.153892   1.083317   0.000000
    21  C    5.063954   4.673848   5.850700   1.462507   2.200092
    22  H    5.654918   5.245461   6.305394   2.198027   2.508845
    23  C    4.677712   4.335410   5.738774   2.471432   3.464058
    24  H    4.573899   4.386123   5.665291   3.308187   4.204038
    25  H    5.464852   4.960635   6.507684   2.993999   3.930023
    26  C    5.492380   5.315147   6.506825   2.878083   3.950433
    27  H    6.506825   6.307389   7.542889   3.838994   4.920946
    28  H    5.315147   5.361169   6.307389   3.376019   4.367054
                   21         22         23         24         25
    21  C    0.000000
    22  H    1.083487   0.000000
    23  C    2.857493   3.929730   0.000000
    24  H    3.832881   4.915008   1.090012   0.000000
    25  H    3.315481   4.301623   1.097417   1.746847   0.000000
    26  C    2.477785   3.467422   1.532862   2.165629   2.161976
    27  H    3.304063   4.196140   2.159076   2.622871   2.356534
    28  H    3.037457   3.971674   2.173205   2.379154   3.036245
                   26         27         28
    26  C    0.000000
    27  H    1.091761   0.000000
    28  H    1.096994   1.742267   0.000000
 Symmetry turned off by external request.
 Stoichiometry    C12H16
 Framework group  CI[X(C12H16)]
 Deg. of freedom    39
 Full point group                 CI      NOp   2
 Rotational constants (GHZ):           1.7818269           0.6001515           0.5384826
 Leave Link  202 at Mon Aug  3 17:23:38 2020, MaxMem=  6442450944 cpu:               0.3 elap:               0.0
 (Enter /scratch/scicomp/CentOS/7.3.1611/Haswell/software/Gaussian/g16/l301.exe)
 Standard basis: def2TZVP (5D, 7F)
 Ernie: Thresh=  0.10000D-02 Tol=  0.10000D-05 Strict=F.
   468 basis functions,   740 primitive gaussians,   528 cartesian basis functions
    44 alpha electrons       44 beta electrons
       nuclear repulsion energy       678.2227150402 Hartrees.
 IExCor= 4639 DFT=T Ex+Corr=wB97XD ExCW=0 ScaHFX=  1.000000
 ScaDFX=  1.000000  1.000000  1.000000  1.000000 ScalE2=  1.000000  1.000000
 IRadAn=      5 IRanWt=     -1 IRanGd=            0 ICorTp=0 IEmpDi=121
 HFx  wShort=  0.000000 wLong=  0.200000 cFull=  0.222036 cShort=  0.000000 cLong=  0.777964
 DFx  wShort=  0.000000 wLong=  0.200000 cFull=  0.000000 cShort=  0.000000 cLong=  1.000000
 NAtoms=   28 NActive=   28 NUniq=   28 SFac= 1.00D+00 NAtFMM=   60 NAOKFM=F Big=F
 Integral buffers will be    131072 words long.
 Raffenetti 2 integral format.
 Two-electron integral symmetry is turned off.
 R6Disp:  Grimme-D2 Dispersion energy=       -0.0224280950 Hartrees.
 Nuclear repulsion after empirical dispersion term =      678.2002869452 Hartrees.
 Using the following non-standard input for PCM:
 qrep pcmdoc geomview  nodis nocav g03defaults tsare=0.075
 Warning! Using old PCM defaults because the g03defaults keyword was found.
 These settings can be overridden by following keywords.
 nsfe=28
 NVESolv=36  SolvMW=84.1595   Rsolv=2.815
 eps=2.0165 RhoS=0.7781
 --- end of non-standard input.
 Reading user-defined spheres from input:
 ISph  on   Nord    Re0     Alpha      Xe            Ye            Ze
 --- end of user-defined spheres data.
 ------------------------------------------------------------------------------
 Polarizable Continuum Model (PCM)
 =================================
 Model                : PCM.
 Atomic radii         : UA0 (Simple United Atom Topological Model).
 Polarization charges : Total charges.
 Charge compensation  : None.
 Solution method      : On-the-fly selection.
 Cavity type          : SES (Solvent Excluding Surface) (Alpha=1.000).
 Cavity algorithm     : GePol (RMin=0.200 OFac=0.890).
                        User-defined sphere list used, NSphG=   28.
                        Tesserae with average area of 0.075 Ang**2.
                        Smoothing algorithm: None.
                        Polarization charges: point-like.
                        Self-potential: constant (ISelfS= 1).
                        Self-field    : global E.n sum rule (ISelfD= 3).
 Solvent              : CycloHexane, Eps=   2.016500 Eps(inf)=   2.035188
                        RSolv=   2.815000 Ang.
 ------------------------------------------------------------------------------
 GePol: Number of generator spheres                  =      28
 GePol: Total number of spheres                      =     186
 GePol: Number of exposed spheres                    =     131 ( 70.43%)
 GePol: Number of tesserae                           =    4693
 GePol: Average area of tesserae                     =       0.05 Ang**2
 GePol: Minimum area of tessera                      =   0.10D-02 Ang**2
 GePol: Maximum area of tessera                      =    0.12395 Ang**2
 GePol: Number of small tesserae                     =       0
 GePol: Fraction of small tesserae (<1% of avg)      =       0.00%
 GePol: Total count of vertices                      =   16627
 GePol: Maximum number of vertices in a tessera      =       7
 GePol: Cavity surface area                          =    221.445 Ang**2
 GePol: Cavity volume                                =    251.717 Ang**3
 Leave Link  301 at Mon Aug  3 17:23:39 2020, MaxMem=  6442450944 cpu:               8.0 elap:               0.4
 (Enter /scratch/scicomp/CentOS/7.3.1611/Haswell/software/Gaussian/g16/l302.exe)
 NPDir=0 NMtPBC=     1 NCelOv=     1 NCel=       1 NClECP=     1 NCelD=      1
         NCelK=      1 NCelE2=     1 NClLst=     1 CellRange=     0.0.
 One-electron integrals computed using PRISM.
   1 Symmetry operations used in ECPInt.
 ECPInt:  NShTT=   19306 NPrTT=   56928 LenC2=   18480 LenP2D=   41966.
 LDataN:  DoStor=T MaxTD1= 6 Len=  172
 NBasis=   468 RedAO= T EigKep=  2.37D-05  NBF=   468
 NBsUse=   468 1.00D-06 EigRej= -1.00D+00 NBFU=   468
 Precomputing XC quadrature grid using
 IXCGrd= 4 IRadAn=           5 IRanWt=          -1 IRanGd=           0 AccXCQ= 0.00D+00.
 Generated NRdTot=       0 NPtTot=           0 NUsed=           0 NTot=          32
 NSgBfM=   526   526   526   526   526 MxSgAt=    28 MxSgA2=    28.
 Leave Link  302 at Mon Aug  3 17:23:39 2020, MaxMem=  6442450944 cpu:              11.8 elap:               0.5
 (Enter /scratch/scicomp/CentOS/7.3.1611/Haswell/software/Gaussian/g16/l401.exe)
 ExpMin= 9.52D-02 ExpMax= 1.36D+04 ExpMxC= 4.63D+02 IAcc=3 IRadAn=         5 AccDes= 0.00D+00
 Harris functional with IExCor= 4639 and IRadAn=       5 diagonalized for initial guess.
 HarFok:  IExCor= 4639 AccDes= 0.00D+00 IRadAn=         5 IDoV= 1 UseB2=F ITyADJ=14
 ICtDFT=  3500011 ScaDFX=  1.000000  1.000000  1.000000  1.000000
 FoFCou: FMM=F IPFlag=           0 FMFlag=      100000 FMFlg1=           0
         NFxFlg=           0 DoJE=T BraDBF=F KetDBF=T FulRan=T
         wScrn=  0.000000 ICntrl=       500 IOpCl=  0 I1Cent=   200000004 NGrid=           0
         NMat0=    1 NMatS0=      1 NMatT0=    0 NMatD0=    1 NMtDS0=    0 NMtDT0=    0
 Symmetry not used in FoFCou.
 Harris En= -444.632399473106    
 JPrj=0 DoOrth=F DoCkMO=T.
 Mixing orbitals, IMix= 1 IMixAn=  0 NRI=1 NE=   44 Coef=  7.07106781D-01  7.07106781D-01
 Mixing orbitals, IMix= 1 IMixAn=  0 NRI=1 NE=   44 Coef= -7.07106781D-01  7.07106781D-01
 Initial guess <Sx>= 0.0000 <Sy>= 0.0000 <Sz>= 0.0000 <S**2>= 1.0000 S= 0.6180
 Leave Link  401 at Mon Aug  3 17:23:41 2020, MaxMem=  6442450944 cpu:              48.0 elap:               2.1
 (Enter /scratch/scicomp/CentOS/7.3.1611/Haswell/software/Gaussian/g16/l9999.exe)

 This type of calculation cannot be archived.


 THE WORLD OF CHEMICAL REACTIONS IS LIKE A STAGE,
 ON WHICH SCENE AFTER SCENE IS CEASELESSLY PLAYED.
 THE ACTORS ON IT ARE THE ELEMENTS.
   -- CLEMENS WINKLER   BER. 30,13(1897)
 (DISCOVERER OF GERMANIUM, FEB 6, 1886)
 Job cpu time:       0 days  0 hours  1 minutes 13.4 seconds.
 Elapsed time:       0 days  0 hours  0 minutes  3.3 seconds.
 File lengths (MBytes):  RWF=    401 Int=      0 D2E=      0 Chk=      1 Scr=      1
 Normal termination of Gaussian 16 at Mon Aug  3 17:23:41 2020.
 Initial command:
 /scratch/scicomp/CentOS/7.3.1611/Haswell/software/Gaussian/g16/l1.exe "/scratch/bochen/cyclohexadiene-dimerization/wb97xd-def2tzvp/xp-pcm/meso/Gau-86213.inp" -scrdir="/scratch/bochen/cyclohexadiene-dimerization/wb97xd-def2tzvp/xp-pcm/meso/"
 Entering Link 1 = /scratch/scicomp/CentOS/7.3.1611/Haswell/software/Gaussian/g16/l1.exe PID=     86378.
  
 Copyright (c) 1988-2017, Gaussian, Inc.  All Rights Reserved.
  
 This is part of the Gaussian(R) 16 program.  It is based on
 the Gaussian(R) 09 system (copyright 2009, Gaussian, Inc.),
 the Gaussian(R) 03 system (copyright 2003, Gaussian, Inc.),
 the Gaussian(R) 98 system (copyright 1998, Gaussian, Inc.),
 the Gaussian(R) 94 system (copyright 1995, Gaussian, Inc.),
 the Gaussian 92(TM) system (copyright 1992, Gaussian, Inc.),
 the Gaussian 90(TM) system (copyright 1990, Gaussian, Inc.),
 the Gaussian 88(TM) system (copyright 1988, Gaussian, Inc.),
 the Gaussian 86(TM) system (copyright 1986, Carnegie Mellon
 University), and the Gaussian 82(TM) system (copyright 1983,
 Carnegie Mellon University). Gaussian is a federally registered
 trademark of Gaussian, Inc.
  
 This software contains proprietary and confidential information,
 including trade secrets, belonging to Gaussian, Inc.
  
 This software is provided under written license and may be
 used, copied, transmitted, or stored only in accord with that
 written license.
  
 The following legend is applicable only to US Government
 contracts under FAR:
  
                    RESTRICTED RIGHTS LEGEND
  
 Use, reproduction and disclosure by the US Government is
 subject to restrictions as set forth in subparagraphs (a)
 and (c) of the Commercial Computer Software - Restricted
 Rights clause in FAR 52.227-19.
  
 Gaussian, Inc.
 340 Quinnipiac St., Bldg. 40, Wallingford CT 06492
  
  
 ---------------------------------------------------------------
 Warning -- This program may not be used in any manner that
 competes with the business of Gaussian, Inc. or will provide
 assistance to any competitor of Gaussian, Inc.  The licensee
 of this program is prohibited from giving any competitor of
 Gaussian, Inc. access to this program.  By using this program,
 the user acknowledges that Gaussian, Inc. is engaged in the
 business of creating and licensing software in the field of
 computational chemistry and represents and warrants to the
 licensee that it is not a competitor of Gaussian, Inc. and that
 it will not use this program in any manner prohibited above.
 ---------------------------------------------------------------
  

 Cite this work as:
 Gaussian 16, Revision B.01,
 M. J. Frisch, G. W. Trucks, H. B. Schlegel, G. E. Scuseria, 
 M. A. Robb, J. R. Cheeseman, G. Scalmani, V. Barone, 
 G. A. Petersson, H. Nakatsuji, X. Li, M. Caricato, A. V. Marenich, 
 J. Bloino, B. G. Janesko, R. Gomperts, B. Mennucci, H. P. Hratchian, 
 J. V. Ortiz, A. F. Izmaylov, J. L. Sonnenberg, D. Williams-Young, 
 F. Ding, F. Lipparini, F. Egidi, J. Goings, B. Peng, A. Petrone, 
 T. Henderson, D. Ranasinghe, V. G. Zakrzewski, J. Gao, N. Rega, 
 G. Zheng, W. Liang, M. Hada, M. Ehara, K. Toyota, R. Fukuda, 
 J. Hasegawa, M. Ishida, T. Nakajima, Y. Honda, O. Kitao, H. Nakai, 
 T. Vreven, K. Throssell, J. A. Montgomery, Jr., J. E. Peralta, 
 F. Ogliaro, M. J. Bearpark, J. J. Heyd, E. N. Brothers, K. N. Kudin, 
 V. N. Staroverov, T. A. Keith, R. Kobayashi, J. Normand, 
 K. Raghavachari, A. P. Rendell, J. C. Burant, S. S. Iyengar, 
 J. Tomasi, M. Cossi, J. M. Millam, M. Klene, C. Adamo, R. Cammi, 
 J. W. Ochterski, R. L. Martin, K. Morokuma, O. Farkas, 
 J. B. Foresman, and D. J. Fox, Gaussian, Inc., Wallingford CT, 2016.
 
 ******************************************
 Gaussian 16:  ES64L-G16RevB.01 20-Dec-2017
                 3-Aug-2020 
 ******************************************
 %chk=meso-TS_46_2_xp-115.chk
 %nproc=24
 Will use up to   24 processors via shared memory.
 %mem=48GB
 ----------------------------------------------------------------------
 #p uwb97xd guess=mix def2tzvp # scrf=(iefpcm,solvent=Cyclohexane,read)
  nosym guess=only pop=none
 ----------------------------------------------------------------------
 1/38=1,40=2,172=1/1;
 2/12=2,15=1,17=6,18=5,40=1/2;
 3/5=44,7=101,11=2,25=1,30=1,70=2203,72=17,74=-58,89=1,116=2/1,2;
 4/13=-1/1;
 99/5=2/99;
 Leave Link    1 at Mon Aug  3 17:23:42 2020, MaxMem=  6442450944 cpu:               1.5 elap:               0.1
 (Enter /scratch/scicomp/CentOS/7.3.1611/Haswell/software/Gaussian/g16/l101.exe)
 -----------------------
 endo-2 xp-pcm for eta=3
 -----------------------
 Symbolic Z-matrix:
 Charge =  0 Multiplicity = 1
 6                    -3.12768  -0.44142   0.25896 
 6                    -0.70838  -0.24553  -1.20242 
 1                    -4.07655  -0.53685   0.77411 
 1                     0.24896  -0.16047  -1.70099 
 6                     1.15231   1.4227    0.77243 
 6                     0.70838   0.24553   1.20242 
 1                     0.55899   2.31927   0.90552 
 1                    -0.24896   0.16047   1.70099 
 6                     1.54502  -0.9962    1.09283 
 1                     2.05966  -1.12686   2.05325 
 1                     0.90429  -1.87      0.9742 
 6                     2.45008   1.52831   0.10644 
 1                     2.85095   2.51433  -0.09607 
 6                     3.12768   0.44142  -0.25896 
 1                     4.07655   0.53685  -0.77411 
 6                     2.57933  -0.94193  -0.03718 
 1                     2.13576  -1.29167  -0.97757 
 1                     3.39266  -1.63764   0.17829 
 6                    -1.15231  -1.4227   -0.77243 
 1                    -0.55899  -2.31927  -0.90552 
 6                    -2.45008  -1.52831  -0.10644 
 1                    -2.85095  -2.51433   0.09607 
 6                    -1.54502   0.9962   -1.09283 
 1                    -0.90429   1.87     -0.9742 
 1                    -2.05966   1.12686  -2.05325 
 6                    -2.57933   0.94193   0.03718 
 1                    -3.39266   1.63764  -0.17829 
 1                    -2.13576   1.29167   0.97757 
 
 ITRead=  0  0  0  0  0  0  0  0  0  0  0  0  0  0  0  0  0  0  0  0
 ITRead=  0  0  0  0  0  0  0  0
 MicOpt= -1 -1 -1 -1 -1 -1 -1 -1 -1 -1 -1 -1 -1 -1 -1 -1 -1 -1 -1 -1
 MicOpt= -1 -1 -1 -1 -1 -1 -1 -1
 NAtoms=     28 NQM=       28 NQMF=       0 NMMI=      0 NMMIF=      0
                NMic=       0 NMicF=      0.
                    Isotopes and Nuclear Properties:
 (Nuclear quadrupole moments (NQMom) in fm**2, nuclear magnetic moments (NMagM)
  in nuclear magnetons)

  Atom         1           2           3           4           5           6           7           8           9          10
 IAtWgt=          12          12           1           1          12          12           1           1          12           1
 AtmWgt=  12.0000000  12.0000000   1.0078250   1.0078250  12.0000000  12.0000000   1.0078250   1.0078250  12.0000000   1.0078250
 NucSpn=           0           0           1           1           0           0           1           1           0           1
 AtZEff=  -0.0000000  -0.0000000  -0.0000000  -0.0000000  -0.0000000  -0.0000000  -0.0000000  -0.0000000  -0.0000000  -0.0000000
 NQMom=    0.0000000   0.0000000   0.0000000   0.0000000   0.0000000   0.0000000   0.0000000   0.0000000   0.0000000   0.0000000
 NMagM=    0.0000000   0.0000000   2.7928460   2.7928460   0.0000000   0.0000000   2.7928460   2.7928460   0.0000000   2.7928460
 AtZNuc=   6.0000000   6.0000000   1.0000000   1.0000000   6.0000000   6.0000000   1.0000000   1.0000000   6.0000000   1.0000000

  Atom        11          12          13          14          15          16          17          18          19          20
 IAtWgt=           1          12           1          12           1          12           1           1          12           1
 AtmWgt=   1.0078250  12.0000000   1.0078250  12.0000000   1.0078250  12.0000000   1.0078250   1.0078250  12.0000000   1.0078250
 NucSpn=           1           0           1           0           1           0           1           1           0           1
 AtZEff=  -0.0000000  -0.0000000  -0.0000000  -0.0000000  -0.0000000  -0.0000000  -0.0000000  -0.0000000  -0.0000000  -0.0000000
 NQMom=    0.0000000   0.0000000   0.0000000   0.0000000   0.0000000   0.0000000   0.0000000   0.0000000   0.0000000   0.0000000
 NMagM=    2.7928460   0.0000000   2.7928460   0.0000000   2.7928460   0.0000000   2.7928460   2.7928460   0.0000000   2.7928460
 AtZNuc=   1.0000000   6.0000000   1.0000000   6.0000000   1.0000000   6.0000000   1.0000000   1.0000000   6.0000000   1.0000000

  Atom        21          22          23          24          25          26          27          28
 IAtWgt=          12           1          12           1           1          12           1           1
 AtmWgt=  12.0000000   1.0078250  12.0000000   1.0078250   1.0078250  12.0000000   1.0078250   1.0078250
 NucSpn=           0           1           0           1           1           0           1           1
 AtZEff=  -0.0000000  -0.0000000  -0.0000000  -0.0000000  -0.0000000  -0.0000000  -0.0000000  -0.0000000
 NQMom=    0.0000000   0.0000000   0.0000000   0.0000000   0.0000000   0.0000000   0.0000000   0.0000000
 NMagM=    0.0000000   2.7928460   0.0000000   2.7928460   2.7928460   0.0000000   2.7928460   2.7928460
 AtZNuc=   6.0000000   1.0000000   6.0000000   1.0000000   1.0000000   6.0000000   1.0000000   1.0000000
 Leave Link  101 at Mon Aug  3 17:23:42 2020, MaxMem=  6442450944 cpu:               2.4 elap:               0.1
 (Enter /scratch/scicomp/CentOS/7.3.1611/Haswell/software/Gaussian/g16/l202.exe)
                          Input orientation:                          
 ---------------------------------------------------------------------
 Center     Atomic      Atomic             Coordinates (Angstroms)
 Number     Number       Type             X           Y           Z
 ---------------------------------------------------------------------
      1          6           0       -3.127681   -0.441423    0.258958
      2          6           0       -0.708381   -0.245534   -1.202422
      3          1           0       -4.076548   -0.536846    0.774111
      4          1           0        0.248962   -0.160472   -1.700991
      5          6           0        1.152306    1.422704    0.772430
      6          6           0        0.708381    0.245534    1.202422
      7          1           0        0.558988    2.319273    0.905524
      8          1           0       -0.248962    0.160472    1.700991
      9          6           0        1.545018   -0.996200    1.092829
     10          1           0        2.059657   -1.126856    2.053246
     11          1           0        0.904290   -1.869997    0.974198
     12          6           0        2.450083    1.528310    0.106435
     13          1           0        2.850945    2.514335   -0.096069
     14          6           0        3.127681    0.441423   -0.258958
     15          1           0        4.076548    0.536846   -0.774111
     16          6           0        2.579330   -0.941931   -0.037180
     17          1           0        2.135763   -1.291670   -0.977567
     18          1           0        3.392662   -1.637636    0.178291
     19          6           0       -1.152306   -1.422704   -0.772430
     20          1           0       -0.558988   -2.319273   -0.905524
     21          6           0       -2.450083   -1.528310   -0.106435
     22          1           0       -2.850945   -2.514335    0.096069
     23          6           0       -1.545018    0.996200   -1.092829
     24          1           0       -0.904290    1.869997   -0.974198
     25          1           0       -2.059657    1.126856   -2.053246
     26          6           0       -2.579330    0.941931    0.037180
     27          1           0       -3.392662    1.637636   -0.178291
     28          1           0       -2.135763    1.291670    0.977567
 ---------------------------------------------------------------------
                    Distance matrix (angstroms):
                    1          2          3          4          5
     1  C    0.000000
     2  C    2.833199   0.000000
     3  H    1.083899   3.916133   0.000000
     4  H    3.914339   1.082734   4.997782   0.000000
     5  C    4.696479   3.185155   5.583973   3.072505   0.000000
     6  C    4.009664   2.834014   4.867352   2.967442   1.329546
     7  H    4.650916   3.553575   5.446364   3.610979   1.083317
     8  H    3.275479   2.967442   3.999472   3.453175   2.102143
     9  C    4.778832   3.302951   5.649300   3.191180   2.471432
    10  H    5.531525   4.363271   6.295817   4.278646   2.993999
    11  H    4.336955   3.158680   5.160046   3.241692   3.308187
    12  C    5.917310   3.851691   6.878050   3.311149   1.462507
    13  H    6.678811   4.637855   7.619520   4.062103   2.198027
    14  C    6.338549   4.009664   7.343375   3.275479   2.434909
    15  H    7.343375   4.867352   8.367962   3.999472   3.424577
    16  C    5.736565   3.556937   6.717365   2.968090   2.878083
    17  H    5.473185   3.038769   6.498534   2.315809   3.376019
    18  H    6.629654   4.545643   7.573364   3.949249   3.838994
    19  C    2.434909   1.329546   3.424577   2.102143   3.974189
    20  H    3.388292   2.100205   4.286193   2.438437   4.443698
    21  C    1.331906   2.424918   2.098512   3.420297   4.738997
    22  H    2.097637   3.379958   2.423284   4.287134   5.655419
    23  C    2.529607   1.501291   3.499191   2.219485   3.307061
    24  H    3.436103   2.136806   4.348873   2.445613   2.735026
    25  H    2.991064   2.105541   3.850935   2.666649   4.288202
    26  C    1.504507   2.539121   2.229688   3.497966   3.833646
    27  H    2.141002   3.435191   2.470454   4.337422   4.648312
    28  H    2.122242   3.025354   2.674231   3.869148   3.297067
                    6          7          8          9         10
     6  C    0.000000
     7  H    2.100205   0.000000
     8  H    1.082734   2.438437   0.000000
     9  C    1.501291   3.464058   2.219485   0.000000
    10  H    2.105541   3.930023   2.666649   1.097417   0.000000
    11  H    2.136806   4.204038   2.445613   1.090012   1.746847
    12  C    2.424918   2.200092   3.420297   2.857493   3.315481
    13  H    3.379958   2.508845   4.287134   3.929730   4.301623
    14  C    2.833199   3.388292   3.914339   2.529607   2.991064
    15  H    3.916133   4.286193   4.997782   3.499191   3.850935
    16  C    2.539121   3.950433   3.497966   1.532862   2.161976
    17  H    3.025354   4.367054   3.869148   2.173205   3.036245
    18  H    3.435191   4.920946   4.337422   2.159076   2.356534
    19  C    3.185155   4.443698   3.072505   3.307061   4.288202
    20  H    3.553575   5.103516   3.610979   3.189166   4.127164
    21  C    3.851691   4.988233   3.311149   4.205022   5.016288
    22  H    4.637855   5.970480   4.062103   4.756338   5.465314
    23  C    3.302951   3.189166   3.191180   4.277275   5.234390
    24  H    3.158680   2.424126   3.241692   4.299627   5.189559
    25  H    4.363271   4.127164   4.278646   5.234390   6.237888
    26  C    3.556937   3.535553   2.968090   4.677712   5.464852
    27  H    4.545643   4.153892   3.949249   5.738774   6.507684
    28  H    3.038769   2.884933   2.315809   4.335410   4.960635
                   11         12         13         14         15
    11  H    0.000000
    12  C    3.832881   0.000000
    13  H    4.915008   1.083487   0.000000
    14  C    3.436103   1.331906   2.097637   0.000000
    15  H    4.348873   2.098512   2.423284   1.083899   0.000000
    16  C    2.165629   2.477785   3.467422   1.504507   2.229688
    17  H    2.379154   3.037457   3.971674   2.122242   2.674231
    18  H    2.622871   3.304063   4.196140   2.141002   2.470454
    19  C    2.735026   4.738997   5.655419   4.696479   5.583973
    20  H    2.424126   4.988233   5.970480   4.650916   5.446364
    21  C    3.540669   5.779262   6.666632   5.917310   6.878050
    22  H    3.909996   6.666632   7.604998   6.678811   7.619520
    23  C    4.299627   4.205022   4.756338   4.778832   5.649300
    24  H    4.588547   3.540669   3.909996   4.336955   5.160046
    25  H    5.189559   5.016288   5.465314   5.531525   6.295817
    26  C    4.573899   5.063954   5.654918   5.736565   6.717365
    27  H    5.665291   5.850700   6.305394   6.629654   7.573364
    28  H    4.386123   4.673848   5.245461   5.473185   6.498534
                   16         17         18         19         20
    16  C    0.000000
    17  H    1.096994   0.000000
    18  H    1.091761   1.742267   0.000000
    19  C    3.833646   3.297067   4.648312   0.000000
    20  H    3.535553   2.884933   4.153892   1.083317   0.000000
    21  C    5.063954   4.673848   5.850700   1.462507   2.200092
    22  H    5.654918   5.245461   6.305394   2.198027   2.508845
    23  C    4.677712   4.335410   5.738774   2.471432   3.464058
    24  H    4.573899   4.386123   5.665291   3.308187   4.204038
    25  H    5.464852   4.960635   6.507684   2.993999   3.930023
    26  C    5.492380   5.315147   6.506825   2.878083   3.950433
    27  H    6.506825   6.307389   7.542889   3.838994   4.920946
    28  H    5.315147   5.361169   6.307389   3.376019   4.367054
                   21         22         23         24         25
    21  C    0.000000
    22  H    1.083487   0.000000
    23  C    2.857493   3.929730   0.000000
    24  H    3.832881   4.915008   1.090012   0.000000
    25  H    3.315481   4.301623   1.097417   1.746847   0.000000
    26  C    2.477785   3.467422   1.532862   2.165629   2.161976
    27  H    3.304063   4.196140   2.159076   2.622871   2.356534
    28  H    3.037457   3.971674   2.173205   2.379154   3.036245
                   26         27         28
    26  C    0.000000
    27  H    1.091761   0.000000
    28  H    1.096994   1.742267   0.000000
 Symmetry turned off by external request.
 Stoichiometry    C12H16
 Framework group  CI[X(C12H16)]
 Deg. of freedom    39
 Full point group                 CI      NOp   2
 Rotational constants (GHZ):           1.7818269           0.6001515           0.5384826
 Leave Link  202 at Mon Aug  3 17:23:42 2020, MaxMem=  6442450944 cpu:               0.3 elap:               0.0
 (Enter /scratch/scicomp/CentOS/7.3.1611/Haswell/software/Gaussian/g16/l301.exe)
 Standard basis: def2TZVP (5D, 7F)
 Ernie: Thresh=  0.10000D-02 Tol=  0.10000D-05 Strict=F.
   468 basis functions,   740 primitive gaussians,   528 cartesian basis functions
    44 alpha electrons       44 beta electrons
       nuclear repulsion energy       678.2227150402 Hartrees.
 IExCor= 4639 DFT=T Ex+Corr=wB97XD ExCW=0 ScaHFX=  1.000000
 ScaDFX=  1.000000  1.000000  1.000000  1.000000 ScalE2=  1.000000  1.000000
 IRadAn=      5 IRanWt=     -1 IRanGd=            0 ICorTp=0 IEmpDi=121
 HFx  wShort=  0.000000 wLong=  0.200000 cFull=  0.222036 cShort=  0.000000 cLong=  0.777964
 DFx  wShort=  0.000000 wLong=  0.200000 cFull=  0.000000 cShort=  0.000000 cLong=  1.000000
 NAtoms=   28 NActive=   28 NUniq=   28 SFac= 1.00D+00 NAtFMM=   60 NAOKFM=F Big=F
 Integral buffers will be    131072 words long.
 Raffenetti 2 integral format.
 Two-electron integral symmetry is turned off.
 R6Disp:  Grimme-D2 Dispersion energy=       -0.0224280950 Hartrees.
 Nuclear repulsion after empirical dispersion term =      678.2002869452 Hartrees.
 Using the following non-standard input for PCM:
 qrep pcmdoc geomview  nodis nocav g03defaults tsare=0.075
 Warning! Using old PCM defaults because the g03defaults keyword was found.
 These settings can be overridden by following keywords.
 nsfe=28
 NVESolv=36  SolvMW=84.1595   Rsolv=2.815
 eps=2.0165 RhoS=0.7781
 --- end of non-standard input.
 Reading user-defined spheres from input:
 ISph  on   Nord    Re0     Alpha      Xe            Ye            Ze
 --- end of user-defined spheres data.
 ------------------------------------------------------------------------------
 Polarizable Continuum Model (PCM)
 =================================
 Model                : PCM.
 Atomic radii         : UA0 (Simple United Atom Topological Model).
 Polarization charges : Total charges.
 Charge compensation  : None.
 Solution method      : On-the-fly selection.
 Cavity type          : SES (Solvent Excluding Surface) (Alpha=1.000).
 Cavity algorithm     : GePol (RMin=0.200 OFac=0.890).
                        User-defined sphere list used, NSphG=   28.
                        Tesserae with average area of 0.075 Ang**2.
                        Smoothing algorithm: None.
                        Polarization charges: point-like.
                        Self-potential: constant (ISelfS= 1).
                        Self-field    : global E.n sum rule (ISelfD= 3).
 Solvent              : CycloHexane, Eps=   2.016500 Eps(inf)=   2.035188
                        RSolv=   2.815000 Ang.
 ------------------------------------------------------------------------------
 GePol: Number of generator spheres                  =      28
 GePol: Total number of spheres                      =     208
 GePol: Number of exposed spheres                    =     144 ( 69.23%)
 GePol: Number of tesserae                           =    4775
 GePol: Average area of tesserae                     =       0.04 Ang**2
 GePol: Minimum area of tessera                      =   0.10D-02 Ang**2
 GePol: Maximum area of tessera                      =    0.10771 Ang**2
 GePol: Number of small tesserae                     =       0
 GePol: Fraction of small tesserae (<1% of avg)      =       0.00%
 GePol: Total count of vertices                      =   16920
 GePol: Maximum number of vertices in a tessera      =       7
 GePol: Cavity surface area                          =    214.321 Ang**2
 GePol: Cavity volume                                =    236.514 Ang**3
 Leave Link  301 at Mon Aug  3 17:23:42 2020, MaxMem=  6442450944 cpu:               8.0 elap:               0.4
 (Enter /scratch/scicomp/CentOS/7.3.1611/Haswell/software/Gaussian/g16/l302.exe)
 NPDir=0 NMtPBC=     1 NCelOv=     1 NCel=       1 NClECP=     1 NCelD=      1
         NCelK=      1 NCelE2=     1 NClLst=     1 CellRange=     0.0.
 One-electron integrals computed using PRISM.
   1 Symmetry operations used in ECPInt.
 ECPInt:  NShTT=   19306 NPrTT=   56928 LenC2=   18480 LenP2D=   41966.
 LDataN:  DoStor=T MaxTD1= 6 Len=  172
 NBasis=   468 RedAO= T EigKep=  2.37D-05  NBF=   468
 NBsUse=   468 1.00D-06 EigRej= -1.00D+00 NBFU=   468
 Precomputing XC quadrature grid using
 IXCGrd= 4 IRadAn=           5 IRanWt=          -1 IRanGd=           0 AccXCQ= 0.00D+00.
 Generated NRdTot=       0 NPtTot=           0 NUsed=           0 NTot=          32
 NSgBfM=   526   526   526   526   526 MxSgAt=    28 MxSgA2=    28.
 Leave Link  302 at Mon Aug  3 17:23:43 2020, MaxMem=  6442450944 cpu:              11.8 elap:               0.5
 (Enter /scratch/scicomp/CentOS/7.3.1611/Haswell/software/Gaussian/g16/l401.exe)
 ExpMin= 9.52D-02 ExpMax= 1.36D+04 ExpMxC= 4.63D+02 IAcc=3 IRadAn=         5 AccDes= 0.00D+00
 Harris functional with IExCor= 4639 and IRadAn=       5 diagonalized for initial guess.
 HarFok:  IExCor= 4639 AccDes= 0.00D+00 IRadAn=         5 IDoV= 1 UseB2=F ITyADJ=14
 ICtDFT=  3500011 ScaDFX=  1.000000  1.000000  1.000000  1.000000
 FoFCou: FMM=F IPFlag=           0 FMFlag=      100000 FMFlg1=           0
         NFxFlg=           0 DoJE=T BraDBF=F KetDBF=T FulRan=T
         wScrn=  0.000000 ICntrl=       500 IOpCl=  0 I1Cent=   200000004 NGrid=           0
         NMat0=    1 NMatS0=      1 NMatT0=    0 NMatD0=    1 NMtDS0=    0 NMtDT0=    0
 Symmetry not used in FoFCou.
 Harris En= -444.632399473106    
 JPrj=0 DoOrth=F DoCkMO=T.
 Mixing orbitals, IMix= 1 IMixAn=  0 NRI=1 NE=   44 Coef=  7.07106781D-01  7.07106781D-01
 Mixing orbitals, IMix= 1 IMixAn=  0 NRI=1 NE=   44 Coef= -7.07106781D-01  7.07106781D-01
 Initial guess <Sx>= 0.0000 <Sy>= 0.0000 <Sz>= 0.0000 <S**2>= 1.0000 S= 0.6180
 Leave Link  401 at Mon Aug  3 17:23:45 2020, MaxMem=  6442450944 cpu:              47.2 elap:               2.0
 (Enter /scratch/scicomp/CentOS/7.3.1611/Haswell/software/Gaussian/g16/l9999.exe)

 This type of calculation cannot be archived.


 ... A MOLECULAR SYSTEM ... (PASSES) ... FROM ONE STATE OF EQUILIBRIUM 
 TO ANOTHER ... BY MEANS OF ALL POSSIBLE INTERMEDIATE PATHS, 
 BUT THE PATH MOST ECONOMICAL OF ENERGY WILL BE THE MORE OFTEN TRAVELED.

                      -- HENRY EYRING, 1945
 Job cpu time:       0 days  0 hours  1 minutes 12.1 seconds.
 Elapsed time:       0 days  0 hours  0 minutes  3.3 seconds.
 File lengths (MBytes):  RWF=    415 Int=      0 D2E=      0 Chk=      1 Scr=      1
 Normal termination of Gaussian 16 at Mon Aug  3 17:23:45 2020.
 Initial command:
 /scratch/scicomp/CentOS/7.3.1611/Haswell/software/Gaussian/g16/l1.exe "/scratch/bochen/cyclohexadiene-dimerization/wb97xd-def2tzvp/xp-pcm/meso/Gau-86213.inp" -scrdir="/scratch/bochen/cyclohexadiene-dimerization/wb97xd-def2tzvp/xp-pcm/meso/"
 Entering Link 1 = /scratch/scicomp/CentOS/7.3.1611/Haswell/software/Gaussian/g16/l1.exe PID=     86541.
  
 Copyright (c) 1988-2017, Gaussian, Inc.  All Rights Reserved.
  
 This is part of the Gaussian(R) 16 program.  It is based on
 the Gaussian(R) 09 system (copyright 2009, Gaussian, Inc.),
 the Gaussian(R) 03 system (copyright 2003, Gaussian, Inc.),
 the Gaussian(R) 98 system (copyright 1998, Gaussian, Inc.),
 the Gaussian(R) 94 system (copyright 1995, Gaussian, Inc.),
 the Gaussian 92(TM) system (copyright 1992, Gaussian, Inc.),
 the Gaussian 90(TM) system (copyright 1990, Gaussian, Inc.),
 the Gaussian 88(TM) system (copyright 1988, Gaussian, Inc.),
 the Gaussian 86(TM) system (copyright 1986, Carnegie Mellon
 University), and the Gaussian 82(TM) system (copyright 1983,
 Carnegie Mellon University). Gaussian is a federally registered
 trademark of Gaussian, Inc.
  
 This software contains proprietary and confidential information,
 including trade secrets, belonging to Gaussian, Inc.
  
 This software is provided under written license and may be
 used, copied, transmitted, or stored only in accord with that
 written license.
  
 The following legend is applicable only to US Government
 contracts under FAR:
  
                    RESTRICTED RIGHTS LEGEND
  
 Use, reproduction and disclosure by the US Government is
 subject to restrictions as set forth in subparagraphs (a)
 and (c) of the Commercial Computer Software - Restricted
 Rights clause in FAR 52.227-19.
  
 Gaussian, Inc.
 340 Quinnipiac St., Bldg. 40, Wallingford CT 06492
  
  
 ---------------------------------------------------------------
 Warning -- This program may not be used in any manner that
 competes with the business of Gaussian, Inc. or will provide
 assistance to any competitor of Gaussian, Inc.  The licensee
 of this program is prohibited from giving any competitor of
 Gaussian, Inc. access to this program.  By using this program,
 the user acknowledges that Gaussian, Inc. is engaged in the
 business of creating and licensing software in the field of
 computational chemistry and represents and warrants to the
 licensee that it is not a competitor of Gaussian, Inc. and that
 it will not use this program in any manner prohibited above.
 ---------------------------------------------------------------
  

 Cite this work as:
 Gaussian 16, Revision B.01,
 M. J. Frisch, G. W. Trucks, H. B. Schlegel, G. E. Scuseria, 
 M. A. Robb, J. R. Cheeseman, G. Scalmani, V. Barone, 
 G. A. Petersson, H. Nakatsuji, X. Li, M. Caricato, A. V. Marenich, 
 J. Bloino, B. G. Janesko, R. Gomperts, B. Mennucci, H. P. Hratchian, 
 J. V. Ortiz, A. F. Izmaylov, J. L. Sonnenberg, D. Williams-Young, 
 F. Ding, F. Lipparini, F. Egidi, J. Goings, B. Peng, A. Petrone, 
 T. Henderson, D. Ranasinghe, V. G. Zakrzewski, J. Gao, N. Rega, 
 G. Zheng, W. Liang, M. Hada, M. Ehara, K. Toyota, R. Fukuda, 
 J. Hasegawa, M. Ishida, T. Nakajima, Y. Honda, O. Kitao, H. Nakai, 
 T. Vreven, K. Throssell, J. A. Montgomery, Jr., J. E. Peralta, 
 F. Ogliaro, M. J. Bearpark, J. J. Heyd, E. N. Brothers, K. N. Kudin, 
 V. N. Staroverov, T. A. Keith, R. Kobayashi, J. Normand, 
 K. Raghavachari, A. P. Rendell, J. C. Burant, S. S. Iyengar, 
 J. Tomasi, M. Cossi, J. M. Millam, M. Klene, C. Adamo, R. Cammi, 
 J. W. Ochterski, R. L. Martin, K. Morokuma, O. Farkas, 
 J. B. Foresman, and D. J. Fox, Gaussian, Inc., Wallingford CT, 2016.
 
 ******************************************
 Gaussian 16:  ES64L-G16RevB.01 20-Dec-2017
                 3-Aug-2020 
 ******************************************
 %chk=meso-TS_46_2_xp-110.chk
 %nproc=24
 Will use up to   24 processors via shared memory.
 %mem=48GB
 ----------------------------------------------------------------------
 #p uwb97xd guess=mix def2tzvp # scrf=(iefpcm,solvent=Cyclohexane,read)
  nosym guess=only pop=none
 ----------------------------------------------------------------------
 1/38=1,40=2,172=1/1;
 2/12=2,15=1,17=6,18=5,40=1/2;
 3/5=44,7=101,11=2,25=1,30=1,70=2203,72=17,74=-58,89=1,116=2/1,2;
 4/13=-1/1;
 99/5=2/99;
 Leave Link    1 at Mon Aug  3 17:23:45 2020, MaxMem=  6442450944 cpu:               2.2 elap:               0.1
 (Enter /scratch/scicomp/CentOS/7.3.1611/Haswell/software/Gaussian/g16/l101.exe)
 -----------------------
 endo-2 xp-pcm for eta=3
 -----------------------
 Symbolic Z-matrix:
 Charge =  0 Multiplicity = 1
 6                    -3.12768  -0.44142   0.25896 
 6                    -0.70838  -0.24553  -1.20242 
 1                    -4.07655  -0.53685   0.77411 
 1                     0.24896  -0.16047  -1.70099 
 6                     1.15231   1.4227    0.77243 
 6                     0.70838   0.24553   1.20242 
 1                     0.55899   2.31927   0.90552 
 1                    -0.24896   0.16047   1.70099 
 6                     1.54502  -0.9962    1.09283 
 1                     2.05966  -1.12686   2.05325 
 1                     0.90429  -1.87      0.9742 
 6                     2.45008   1.52831   0.10644 
 1                     2.85095   2.51433  -0.09607 
 6                     3.12768   0.44142  -0.25896 
 1                     4.07655   0.53685  -0.77411 
 6                     2.57933  -0.94193  -0.03718 
 1                     2.13576  -1.29167  -0.97757 
 1                     3.39266  -1.63764   0.17829 
 6                    -1.15231  -1.4227   -0.77243 
 1                    -0.55899  -2.31927  -0.90552 
 6                    -2.45008  -1.52831  -0.10644 
 1                    -2.85095  -2.51433   0.09607 
 6                    -1.54502   0.9962   -1.09283 
 1                    -0.90429   1.87     -0.9742 
 1                    -2.05966   1.12686  -2.05325 
 6                    -2.57933   0.94193   0.03718 
 1                    -3.39266   1.63764  -0.17829 
 1                    -2.13576   1.29167   0.97757 
 
 ITRead=  0  0  0  0  0  0  0  0  0  0  0  0  0  0  0  0  0  0  0  0
 ITRead=  0  0  0  0  0  0  0  0
 MicOpt= -1 -1 -1 -1 -1 -1 -1 -1 -1 -1 -1 -1 -1 -1 -1 -1 -1 -1 -1 -1
 MicOpt= -1 -1 -1 -1 -1 -1 -1 -1
 NAtoms=     28 NQM=       28 NQMF=       0 NMMI=      0 NMMIF=      0
                NMic=       0 NMicF=      0.
                    Isotopes and Nuclear Properties:
 (Nuclear quadrupole moments (NQMom) in fm**2, nuclear magnetic moments (NMagM)
  in nuclear magnetons)

  Atom         1           2           3           4           5           6           7           8           9          10
 IAtWgt=          12          12           1           1          12          12           1           1          12           1
 AtmWgt=  12.0000000  12.0000000   1.0078250   1.0078250  12.0000000  12.0000000   1.0078250   1.0078250  12.0000000   1.0078250
 NucSpn=           0           0           1           1           0           0           1           1           0           1
 AtZEff=  -0.0000000  -0.0000000  -0.0000000  -0.0000000  -0.0000000  -0.0000000  -0.0000000  -0.0000000  -0.0000000  -0.0000000
 NQMom=    0.0000000   0.0000000   0.0000000   0.0000000   0.0000000   0.0000000   0.0000000   0.0000000   0.0000000   0.0000000
 NMagM=    0.0000000   0.0000000   2.7928460   2.7928460   0.0000000   0.0000000   2.7928460   2.7928460   0.0000000   2.7928460
 AtZNuc=   6.0000000   6.0000000   1.0000000   1.0000000   6.0000000   6.0000000   1.0000000   1.0000000   6.0000000   1.0000000

  Atom        11          12          13          14          15          16          17          18          19          20
 IAtWgt=           1          12           1          12           1          12           1           1          12           1
 AtmWgt=   1.0078250  12.0000000   1.0078250  12.0000000   1.0078250  12.0000000   1.0078250   1.0078250  12.0000000   1.0078250
 NucSpn=           1           0           1           0           1           0           1           1           0           1
 AtZEff=  -0.0000000  -0.0000000  -0.0000000  -0.0000000  -0.0000000  -0.0000000  -0.0000000  -0.0000000  -0.0000000  -0.0000000
 NQMom=    0.0000000   0.0000000   0.0000000   0.0000000   0.0000000   0.0000000   0.0000000   0.0000000   0.0000000   0.0000000
 NMagM=    2.7928460   0.0000000   2.7928460   0.0000000   2.7928460   0.0000000   2.7928460   2.7928460   0.0000000   2.7928460
 AtZNuc=   1.0000000   6.0000000   1.0000000   6.0000000   1.0000000   6.0000000   1.0000000   1.0000000   6.0000000   1.0000000

  Atom        21          22          23          24          25          26          27          28
 IAtWgt=          12           1          12           1           1          12           1           1
 AtmWgt=  12.0000000   1.0078250  12.0000000   1.0078250   1.0078250  12.0000000   1.0078250   1.0078250
 NucSpn=           0           1           0           1           1           0           1           1
 AtZEff=  -0.0000000  -0.0000000  -0.0000000  -0.0000000  -0.0000000  -0.0000000  -0.0000000  -0.0000000
 NQMom=    0.0000000   0.0000000   0.0000000   0.0000000   0.0000000   0.0000000   0.0000000   0.0000000
 NMagM=    0.0000000   2.7928460   0.0000000   2.7928460   2.7928460   0.0000000   2.7928460   2.7928460
 AtZNuc=   6.0000000   1.0000000   6.0000000   1.0000000   1.0000000   6.0000000   1.0000000   1.0000000
 Leave Link  101 at Mon Aug  3 17:23:45 2020, MaxMem=  6442450944 cpu:               2.4 elap:               0.1
 (Enter /scratch/scicomp/CentOS/7.3.1611/Haswell/software/Gaussian/g16/l202.exe)
                          Input orientation:                          
 ---------------------------------------------------------------------
 Center     Atomic      Atomic             Coordinates (Angstroms)
 Number     Number       Type             X           Y           Z
 ---------------------------------------------------------------------
      1          6           0       -3.127681   -0.441423    0.258958
      2          6           0       -0.708381   -0.245534   -1.202422
      3          1           0       -4.076548   -0.536846    0.774111
      4          1           0        0.248962   -0.160472   -1.700991
      5          6           0        1.152306    1.422704    0.772430
      6          6           0        0.708381    0.245534    1.202422
      7          1           0        0.558988    2.319273    0.905524
      8          1           0       -0.248962    0.160472    1.700991
      9          6           0        1.545018   -0.996200    1.092829
     10          1           0        2.059657   -1.126856    2.053246
     11          1           0        0.904290   -1.869997    0.974198
     12          6           0        2.450083    1.528310    0.106435
     13          1           0        2.850945    2.514335   -0.096069
     14          6           0        3.127681    0.441423   -0.258958
     15          1           0        4.076548    0.536846   -0.774111
     16          6           0        2.579330   -0.941931   -0.037180
     17          1           0        2.135763   -1.291670   -0.977567
     18          1           0        3.392662   -1.637636    0.178291
     19          6           0       -1.152306   -1.422704   -0.772430
     20          1           0       -0.558988   -2.319273   -0.905524
     21          6           0       -2.450083   -1.528310   -0.106435
     22          1           0       -2.850945   -2.514335    0.096069
     23          6           0       -1.545018    0.996200   -1.092829
     24          1           0       -0.904290    1.869997   -0.974198
     25          1           0       -2.059657    1.126856   -2.053246
     26          6           0       -2.579330    0.941931    0.037180
     27          1           0       -3.392662    1.637636   -0.178291
     28          1           0       -2.135763    1.291670    0.977567
 ---------------------------------------------------------------------
                    Distance matrix (angstroms):
                    1          2          3          4          5
     1  C    0.000000
     2  C    2.833199   0.000000
     3  H    1.083899   3.916133   0.000000
     4  H    3.914339   1.082734   4.997782   0.000000
     5  C    4.696479   3.185155   5.583973   3.072505   0.000000
     6  C    4.009664   2.834014   4.867352   2.967442   1.329546
     7  H    4.650916   3.553575   5.446364   3.610979   1.083317
     8  H    3.275479   2.967442   3.999472   3.453175   2.102143
     9  C    4.778832   3.302951   5.649300   3.191180   2.471432
    10  H    5.531525   4.363271   6.295817   4.278646   2.993999
    11  H    4.336955   3.158680   5.160046   3.241692   3.308187
    12  C    5.917310   3.851691   6.878050   3.311149   1.462507
    13  H    6.678811   4.637855   7.619520   4.062103   2.198027
    14  C    6.338549   4.009664   7.343375   3.275479   2.434909
    15  H    7.343375   4.867352   8.367962   3.999472   3.424577
    16  C    5.736565   3.556937   6.717365   2.968090   2.878083
    17  H    5.473185   3.038769   6.498534   2.315809   3.376019
    18  H    6.629654   4.545643   7.573364   3.949249   3.838994
    19  C    2.434909   1.329546   3.424577   2.102143   3.974189
    20  H    3.388292   2.100205   4.286193   2.438437   4.443698
    21  C    1.331906   2.424918   2.098512   3.420297   4.738997
    22  H    2.097637   3.379958   2.423284   4.287134   5.655419
    23  C    2.529607   1.501291   3.499191   2.219485   3.307061
    24  H    3.436103   2.136806   4.348873   2.445613   2.735026
    25  H    2.991064   2.105541   3.850935   2.666649   4.288202
    26  C    1.504507   2.539121   2.229688   3.497966   3.833646
    27  H    2.141002   3.435191   2.470454   4.337422   4.648312
    28  H    2.122242   3.025354   2.674231   3.869148   3.297067
                    6          7          8          9         10
     6  C    0.000000
     7  H    2.100205   0.000000
     8  H    1.082734   2.438437   0.000000
     9  C    1.501291   3.464058   2.219485   0.000000
    10  H    2.105541   3.930023   2.666649   1.097417   0.000000
    11  H    2.136806   4.204038   2.445613   1.090012   1.746847
    12  C    2.424918   2.200092   3.420297   2.857493   3.315481
    13  H    3.379958   2.508845   4.287134   3.929730   4.301623
    14  C    2.833199   3.388292   3.914339   2.529607   2.991064
    15  H    3.916133   4.286193   4.997782   3.499191   3.850935
    16  C    2.539121   3.950433   3.497966   1.532862   2.161976
    17  H    3.025354   4.367054   3.869148   2.173205   3.036245
    18  H    3.435191   4.920946   4.337422   2.159076   2.356534
    19  C    3.185155   4.443698   3.072505   3.307061   4.288202
    20  H    3.553575   5.103516   3.610979   3.189166   4.127164
    21  C    3.851691   4.988233   3.311149   4.205022   5.016288
    22  H    4.637855   5.970480   4.062103   4.756338   5.465314
    23  C    3.302951   3.189166   3.191180   4.277275   5.234390
    24  H    3.158680   2.424126   3.241692   4.299627   5.189559
    25  H    4.363271   4.127164   4.278646   5.234390   6.237888
    26  C    3.556937   3.535553   2.968090   4.677712   5.464852
    27  H    4.545643   4.153892   3.949249   5.738774   6.507684
    28  H    3.038769   2.884933   2.315809   4.335410   4.960635
                   11         12         13         14         15
    11  H    0.000000
    12  C    3.832881   0.000000
    13  H    4.915008   1.083487   0.000000
    14  C    3.436103   1.331906   2.097637   0.000000
    15  H    4.348873   2.098512   2.423284   1.083899   0.000000
    16  C    2.165629   2.477785   3.467422   1.504507   2.229688
    17  H    2.379154   3.037457   3.971674   2.122242   2.674231
    18  H    2.622871   3.304063   4.196140   2.141002   2.470454
    19  C    2.735026   4.738997   5.655419   4.696479   5.583973
    20  H    2.424126   4.988233   5.970480   4.650916   5.446364
    21  C    3.540669   5.779262   6.666632   5.917310   6.878050
    22  H    3.909996   6.666632   7.604998   6.678811   7.619520
    23  C    4.299627   4.205022   4.756338   4.778832   5.649300
    24  H    4.588547   3.540669   3.909996   4.336955   5.160046
    25  H    5.189559   5.016288   5.465314   5.531525   6.295817
    26  C    4.573899   5.063954   5.654918   5.736565   6.717365
    27  H    5.665291   5.850700   6.305394   6.629654   7.573364
    28  H    4.386123   4.673848   5.245461   5.473185   6.498534
                   16         17         18         19         20
    16  C    0.000000
    17  H    1.096994   0.000000
    18  H    1.091761   1.742267   0.000000
    19  C    3.833646   3.297067   4.648312   0.000000
    20  H    3.535553   2.884933   4.153892   1.083317   0.000000
    21  C    5.063954   4.673848   5.850700   1.462507   2.200092
    22  H    5.654918   5.245461   6.305394   2.198027   2.508845
    23  C    4.677712   4.335410   5.738774   2.471432   3.464058
    24  H    4.573899   4.386123   5.665291   3.308187   4.204038
    25  H    5.464852   4.960635   6.507684   2.993999   3.930023
    26  C    5.492380   5.315147   6.506825   2.878083   3.950433
    27  H    6.506825   6.307389   7.542889   3.838994   4.920946
    28  H    5.315147   5.361169   6.307389   3.376019   4.367054
                   21         22         23         24         25
    21  C    0.000000
    22  H    1.083487   0.000000
    23  C    2.857493   3.929730   0.000000
    24  H    3.832881   4.915008   1.090012   0.000000
    25  H    3.315481   4.301623   1.097417   1.746847   0.000000
    26  C    2.477785   3.467422   1.532862   2.165629   2.161976
    27  H    3.304063   4.196140   2.159076   2.622871   2.356534
    28  H    3.037457   3.971674   2.173205   2.379154   3.036245
                   26         27         28
    26  C    0.000000
    27  H    1.091761   0.000000
    28  H    1.096994   1.742267   0.000000
 Symmetry turned off by external request.
 Stoichiometry    C12H16
 Framework group  CI[X(C12H16)]
 Deg. of freedom    39
 Full point group                 CI      NOp   2
 Rotational constants (GHZ):           1.7818269           0.6001515           0.5384826
 Leave Link  202 at Mon Aug  3 17:23:46 2020, MaxMem=  6442450944 cpu:               0.3 elap:               0.0
 (Enter /scratch/scicomp/CentOS/7.3.1611/Haswell/software/Gaussian/g16/l301.exe)
 Standard basis: def2TZVP (5D, 7F)
 Ernie: Thresh=  0.10000D-02 Tol=  0.10000D-05 Strict=F.
   468 basis functions,   740 primitive gaussians,   528 cartesian basis functions
    44 alpha electrons       44 beta electrons
       nuclear repulsion energy       678.2227150402 Hartrees.
 IExCor= 4639 DFT=T Ex+Corr=wB97XD ExCW=0 ScaHFX=  1.000000
 ScaDFX=  1.000000  1.000000  1.000000  1.000000 ScalE2=  1.000000  1.000000
 IRadAn=      5 IRanWt=     -1 IRanGd=            0 ICorTp=0 IEmpDi=121
 HFx  wShort=  0.000000 wLong=  0.200000 cFull=  0.222036 cShort=  0.000000 cLong=  0.777964
 DFx  wShort=  0.000000 wLong=  0.200000 cFull=  0.000000 cShort=  0.000000 cLong=  1.000000
 NAtoms=   28 NActive=   28 NUniq=   28 SFac= 1.00D+00 NAtFMM=   60 NAOKFM=F Big=F
 Integral buffers will be    131072 words long.
 Raffenetti 2 integral format.
 Two-electron integral symmetry is turned off.
 R6Disp:  Grimme-D2 Dispersion energy=       -0.0224280950 Hartrees.
 Nuclear repulsion after empirical dispersion term =      678.2002869452 Hartrees.
 Using the following non-standard input for PCM:
 qrep pcmdoc geomview  nodis nocav g03defaults tsare=0.075
 Warning! Using old PCM defaults because the g03defaults keyword was found.
 These settings can be overridden by following keywords.
 nsfe=28
 NVESolv=36  SolvMW=84.1595   Rsolv=2.815
 eps=2.0165 RhoS=0.7781
 --- end of non-standard input.
 Reading user-defined spheres from input:
 ISph  on   Nord    Re0     Alpha      Xe            Ye            Ze
 --- end of user-defined spheres data.
 ------------------------------------------------------------------------------
 Polarizable Continuum Model (PCM)
 =================================
 Model                : PCM.
 Atomic radii         : UA0 (Simple United Atom Topological Model).
 Polarization charges : Total charges.
 Charge compensation  : None.
 Solution method      : On-the-fly selection.
 Cavity type          : SES (Solvent Excluding Surface) (Alpha=1.000).
 Cavity algorithm     : GePol (RMin=0.200 OFac=0.890).
                        User-defined sphere list used, NSphG=   28.
                        Tesserae with average area of 0.075 Ang**2.
                        Smoothing algorithm: None.
                        Polarization charges: point-like.
                        Self-potential: constant (ISelfS= 1).
                        Self-field    : global E.n sum rule (ISelfD= 3).
 Solvent              : CycloHexane, Eps=   2.016500 Eps(inf)=   2.035188
                        RSolv=   2.815000 Ang.
 ------------------------------------------------------------------------------
 GePol: Number of generator spheres                  =      28
 GePol: Total number of spheres                      =     266
 GePol: Number of exposed spheres                    =     186 ( 69.92%)
 GePol: Number of tesserae                           =    4662
 GePol: Average area of tesserae                     =       0.04 Ang**2
 GePol: Minimum area of tessera                      =   0.10D-02 Ang**2
 GePol: Maximum area of tessera                      =    0.11641 Ang**2
 GePol: Number of small tesserae                     =       0
 GePol: Fraction of small tesserae (<1% of avg)      =       0.00%
 GePol: Total count of vertices                      =   16800
 GePol: Maximum number of vertices in a tessera      =       7
 GePol: Cavity surface area                          =    207.321 Ang**2
 GePol: Cavity volume                                =    222.794 Ang**3
 Leave Link  301 at Mon Aug  3 17:23:46 2020, MaxMem=  6442450944 cpu:               9.0 elap:               0.4
 (Enter /scratch/scicomp/CentOS/7.3.1611/Haswell/software/Gaussian/g16/l302.exe)
 NPDir=0 NMtPBC=     1 NCelOv=     1 NCel=       1 NClECP=     1 NCelD=      1
         NCelK=      1 NCelE2=     1 NClLst=     1 CellRange=     0.0.
 One-electron integrals computed using PRISM.
   1 Symmetry operations used in ECPInt.
 ECPInt:  NShTT=   19306 NPrTT=   56928 LenC2=   18480 LenP2D=   41966.
 LDataN:  DoStor=T MaxTD1= 6 Len=  172
 NBasis=   468 RedAO= T EigKep=  2.37D-05  NBF=   468
 NBsUse=   468 1.00D-06 EigRej= -1.00D+00 NBFU=   468
 Precomputing XC quadrature grid using
 IXCGrd= 4 IRadAn=           5 IRanWt=          -1 IRanGd=           0 AccXCQ= 0.00D+00.
 Generated NRdTot=       0 NPtTot=           0 NUsed=           0 NTot=          32
 NSgBfM=   526   526   526   526   526 MxSgAt=    28 MxSgA2=    28.
 Leave Link  302 at Mon Aug  3 17:23:47 2020, MaxMem=  6442450944 cpu:              11.8 elap:               0.5
 (Enter /scratch/scicomp/CentOS/7.3.1611/Haswell/software/Gaussian/g16/l401.exe)
 ExpMin= 9.52D-02 ExpMax= 1.36D+04 ExpMxC= 4.63D+02 IAcc=3 IRadAn=         5 AccDes= 0.00D+00
 Harris functional with IExCor= 4639 and IRadAn=       5 diagonalized for initial guess.
 HarFok:  IExCor= 4639 AccDes= 0.00D+00 IRadAn=         5 IDoV= 1 UseB2=F ITyADJ=14
 ICtDFT=  3500011 ScaDFX=  1.000000  1.000000  1.000000  1.000000
 FoFCou: FMM=F IPFlag=           0 FMFlag=      100000 FMFlg1=           0
         NFxFlg=           0 DoJE=T BraDBF=F KetDBF=T FulRan=T
         wScrn=  0.000000 ICntrl=       500 IOpCl=  0 I1Cent=   200000004 NGrid=           0
         NMat0=    1 NMatS0=      1 NMatT0=    0 NMatD0=    1 NMtDS0=    0 NMtDT0=    0
 Symmetry not used in FoFCou.
 Harris En= -444.632399473106    
 JPrj=0 DoOrth=F DoCkMO=T.
 Mixing orbitals, IMix= 1 IMixAn=  0 NRI=1 NE=   44 Coef=  7.07106781D-01  7.07106781D-01
 Mixing orbitals, IMix= 1 IMixAn=  0 NRI=1 NE=   44 Coef= -7.07106781D-01  7.07106781D-01
 Initial guess <Sx>= 0.0000 <Sy>= 0.0000 <Sz>= 0.0000 <S**2>= 1.0000 S= 0.6180
 Leave Link  401 at Mon Aug  3 17:23:49 2020, MaxMem=  6442450944 cpu:              47.3 elap:               2.0
 (Enter /scratch/scicomp/CentOS/7.3.1611/Haswell/software/Gaussian/g16/l9999.exe)

 This type of calculation cannot be archived.


 LIFE CAN ONLY BE UNDERSTOOD BACKWARD, BUT MUST
 BE LIVED FORWARD. -- KIRKEGAARD
 Job cpu time:       0 days  0 hours  1 minutes 14.0 seconds.
 Elapsed time:       0 days  0 hours  0 minutes  3.4 seconds.
 File lengths (MBytes):  RWF=    399 Int=      0 D2E=      0 Chk=      1 Scr=      1
 Normal termination of Gaussian 16 at Mon Aug  3 17:23:49 2020.
 Initial command:
 /scratch/scicomp/CentOS/7.3.1611/Haswell/software/Gaussian/g16/l1.exe "/scratch/bochen/cyclohexadiene-dimerization/wb97xd-def2tzvp/xp-pcm/meso/Gau-86213.inp" -scrdir="/scratch/bochen/cyclohexadiene-dimerization/wb97xd-def2tzvp/xp-pcm/meso/"
 Entering Link 1 = /scratch/scicomp/CentOS/7.3.1611/Haswell/software/Gaussian/g16/l1.exe PID=     86703.
  
 Copyright (c) 1988-2017, Gaussian, Inc.  All Rights Reserved.
  
 This is part of the Gaussian(R) 16 program.  It is based on
 the Gaussian(R) 09 system (copyright 2009, Gaussian, Inc.),
 the Gaussian(R) 03 system (copyright 2003, Gaussian, Inc.),
 the Gaussian(R) 98 system (copyright 1998, Gaussian, Inc.),
 the Gaussian(R) 94 system (copyright 1995, Gaussian, Inc.),
 the Gaussian 92(TM) system (copyright 1992, Gaussian, Inc.),
 the Gaussian 90(TM) system (copyright 1990, Gaussian, Inc.),
 the Gaussian 88(TM) system (copyright 1988, Gaussian, Inc.),
 the Gaussian 86(TM) system (copyright 1986, Carnegie Mellon
 University), and the Gaussian 82(TM) system (copyright 1983,
 Carnegie Mellon University). Gaussian is a federally registered
 trademark of Gaussian, Inc.
  
 This software contains proprietary and confidential information,
 including trade secrets, belonging to Gaussian, Inc.
  
 This software is provided under written license and may be
 used, copied, transmitted, or stored only in accord with that
 written license.
  
 The following legend is applicable only to US Government
 contracts under FAR:
  
                    RESTRICTED RIGHTS LEGEND
  
 Use, reproduction and disclosure by the US Government is
 subject to restrictions as set forth in subparagraphs (a)
 and (c) of the Commercial Computer Software - Restricted
 Rights clause in FAR 52.227-19.
  
 Gaussian, Inc.
 340 Quinnipiac St., Bldg. 40, Wallingford CT 06492
  
  
 ---------------------------------------------------------------
 Warning -- This program may not be used in any manner that
 competes with the business of Gaussian, Inc. or will provide
 assistance to any competitor of Gaussian, Inc.  The licensee
 of this program is prohibited from giving any competitor of
 Gaussian, Inc. access to this program.  By using this program,
 the user acknowledges that Gaussian, Inc. is engaged in the
 business of creating and licensing software in the field of
 computational chemistry and represents and warrants to the
 licensee that it is not a competitor of Gaussian, Inc. and that
 it will not use this program in any manner prohibited above.
 ---------------------------------------------------------------
  

 Cite this work as:
 Gaussian 16, Revision B.01,
 M. J. Frisch, G. W. Trucks, H. B. Schlegel, G. E. Scuseria, 
 M. A. Robb, J. R. Cheeseman, G. Scalmani, V. Barone, 
 G. A. Petersson, H. Nakatsuji, X. Li, M. Caricato, A. V. Marenich, 
 J. Bloino, B. G. Janesko, R. Gomperts, B. Mennucci, H. P. Hratchian, 
 J. V. Ortiz, A. F. Izmaylov, J. L. Sonnenberg, D. Williams-Young, 
 F. Ding, F. Lipparini, F. Egidi, J. Goings, B. Peng, A. Petrone, 
 T. Henderson, D. Ranasinghe, V. G. Zakrzewski, J. Gao, N. Rega, 
 G. Zheng, W. Liang, M. Hada, M. Ehara, K. Toyota, R. Fukuda, 
 J. Hasegawa, M. Ishida, T. Nakajima, Y. Honda, O. Kitao, H. Nakai, 
 T. Vreven, K. Throssell, J. A. Montgomery, Jr., J. E. Peralta, 
 F. Ogliaro, M. J. Bearpark, J. J. Heyd, E. N. Brothers, K. N. Kudin, 
 V. N. Staroverov, T. A. Keith, R. Kobayashi, J. Normand, 
 K. Raghavachari, A. P. Rendell, J. C. Burant, S. S. Iyengar, 
 J. Tomasi, M. Cossi, J. M. Millam, M. Klene, C. Adamo, R. Cammi, 
 J. W. Ochterski, R. L. Martin, K. Morokuma, O. Farkas, 
 J. B. Foresman, and D. J. Fox, Gaussian, Inc., Wallingford CT, 2016.
 
 ******************************************
 Gaussian 16:  ES64L-G16RevB.01 20-Dec-2017
                 3-Aug-2020 
 ******************************************
 %chk=meso-TS_46_2_xp-105.chk
 %nproc=24
 Will use up to   24 processors via shared memory.
 %mem=48GB
 ----------------------------------------------------------------------
 #p uwb97xd guess=mix def2tzvp # scrf=(iefpcm,solvent=Cyclohexane,read)
  nosym guess=only pop=none
 ----------------------------------------------------------------------
 1/38=1,40=2,172=1/1;
 2/12=2,15=1,17=6,18=5,40=1/2;
 3/5=44,7=101,11=2,25=1,30=1,70=2203,72=17,74=-58,89=1,116=2/1,2;
 4/13=-1/1;
 99/5=2/99;
 Leave Link    1 at Mon Aug  3 17:23:49 2020, MaxMem=  6442450944 cpu:               1.5 elap:               0.1
 (Enter /scratch/scicomp/CentOS/7.3.1611/Haswell/software/Gaussian/g16/l101.exe)
 -----------------------
 endo-2 xp-pcm for eta=3
 -----------------------
 Symbolic Z-matrix:
 Charge =  0 Multiplicity = 1
 6                    -3.12768  -0.44142   0.25896 
 6                    -0.70838  -0.24553  -1.20242 
 1                    -4.07655  -0.53685   0.77411 
 1                     0.24896  -0.16047  -1.70099 
 6                     1.15231   1.4227    0.77243 
 6                     0.70838   0.24553   1.20242 
 1                     0.55899   2.31927   0.90552 
 1                    -0.24896   0.16047   1.70099 
 6                     1.54502  -0.9962    1.09283 
 1                     2.05966  -1.12686   2.05325 
 1                     0.90429  -1.87      0.9742 
 6                     2.45008   1.52831   0.10644 
 1                     2.85095   2.51433  -0.09607 
 6                     3.12768   0.44142  -0.25896 
 1                     4.07655   0.53685  -0.77411 
 6                     2.57933  -0.94193  -0.03718 
 1                     2.13576  -1.29167  -0.97757 
 1                     3.39266  -1.63764   0.17829 
[...]
 6                    -0.70838  -0.24553  -1.20242 
 1                    -4.07655  -0.53685   0.77411 
 1                     0.24896  -0.16047  -1.70099 
 6                     1.15231   1.4227    0.77243 
 6                     0.70838   0.24553   1.20242 
 1                     0.55899   2.31927   0.90552 
 1                    -0.24896   0.16047   1.70099 
 6                     1.54502  -0.9962    1.09283 
 1                     2.05966  -1.12686   2.05325 
 1                     0.90429  -1.87      0.9742 
 6                     2.45008   1.52831   0.10644 
 1                     2.85095   2.51433  -0.09607 
 6                     3.12768   0.44142  -0.25896 
 1                     4.07655   0.53685  -0.77411 
 6                     2.57933  -0.94193  -0.03718 
 1                     2.13576  -1.29167  -0.97757 
 1                     3.39266  -1.63764   0.17829 
 6                    -1.15231  -1.4227   -0.77243 
 1                    -0.55899  -2.31927  -0.90552 
 6                    -2.45008  -1.52831  -0.10644 
 1                    -2.85095  -2.51433   0.09607 
 6                    -1.54502   0.9962   -1.09283 
 1                    -0.90429   1.87     -0.9742 
 1                    -2.05966   1.12686  -2.05325 
 6                    -2.57933   0.94193   0.03718 
 1                    -3.39266   1.63764  -0.17829 
 1                    -2.13576   1.29167   0.97757 
 
 ITRead=  0  0  0  0  0  0  0  0  0  0  0  0  0  0  0  0  0  0  0  0
 ITRead=  0  0  0  0  0  0  0  0
 MicOpt= -1 -1 -1 -1 -1 -1 -1 -1 -1 -1 -1 -1 -1 -1 -1 -1 -1 -1 -1 -1
 MicOpt= -1 -1 -1 -1 -1 -1 -1 -1
 NAtoms=     28 NQM=       28 NQMF=       0 NMMI=      0 NMMIF=      0
                NMic=       0 NMicF=      0.
                    Isotopes and Nuclear Properties:
 (Nuclear quadrupole moments (NQMom) in fm**2, nuclear magnetic moments (NMagM)
  in nuclear magnetons)

  Atom         1           2           3           4           5           6           7           8           9          10
 IAtWgt=          12          12           1           1          12          12           1           1          12           1
 AtmWgt=  12.0000000  12.0000000   1.0078250   1.0078250  12.0000000  12.0000000   1.0078250   1.0078250  12.0000000   1.0078250
 NucSpn=           0           0           1           1           0           0           1           1           0           1
 AtZEff=  -0.0000000  -0.0000000  -0.0000000  -0.0000000  -0.0000000  -0.0000000  -0.0000000  -0.0000000  -0.0000000  -0.0000000
 NQMom=    0.0000000   0.0000000   0.0000000   0.0000000   0.0000000   0.0000000   0.0000000   0.0000000   0.0000000   0.0000000
 NMagM=    0.0000000   0.0000000   2.7928460   2.7928460   0.0000000   0.0000000   2.7928460   2.7928460   0.0000000   2.7928460
 AtZNuc=   6.0000000   6.0000000   1.0000000   1.0000000   6.0000000   6.0000000   1.0000000   1.0000000   6.0000000   1.0000000

  Atom        11          12          13          14          15          16          17          18          19          20
 IAtWgt=           1          12           1          12           1          12           1           1          12           1
 AtmWgt=   1.0078250  12.0000000   1.0078250  12.0000000   1.0078250  12.0000000   1.0078250   1.0078250  12.0000000   1.0078250
 NucSpn=           1           0           1           0           1           0           1           1           0           1
 AtZEff=  -0.0000000  -0.0000000  -0.0000000  -0.0000000  -0.0000000  -0.0000000  -0.0000000  -0.0000000  -0.0000000  -0.0000000
 NQMom=    0.0000000   0.0000000   0.0000000   0.0000000   0.0000000   0.0000000   0.0000000   0.0000000   0.0000000   0.0000000
 NMagM=    2.7928460   0.0000000   2.7928460   0.0000000   2.7928460   0.0000000   2.7928460   2.7928460   0.0000000   2.7928460
 AtZNuc=   1.0000000   6.0000000   1.0000000   6.0000000   1.0000000   6.0000000   1.0000000   1.0000000   6.0000000   1.0000000

  Atom        21          22          23          24          25          26          27          28
 IAtWgt=          12           1          12           1           1          12           1           1
 AtmWgt=  12.0000000   1.0078250  12.0000000   1.0078250   1.0078250  12.0000000   1.0078250   1.0078250
 NucSpn=           0           1           0           1           1           0           1           1
 AtZEff=  -0.0000000  -0.0000000  -0.0000000  -0.0000000  -0.0000000  -0.0000000  -0.0000000  -0.0000000
 NQMom=    0.0000000   0.0000000   0.0000000   0.0000000   0.0000000   0.0000000   0.0000000   0.0000000
 NMagM=    0.0000000   2.7928460   0.0000000   2.7928460   2.7928460   0.0000000   2.7928460   2.7928460
 AtZNuc=   6.0000000   1.0000000   6.0000000   1.0000000   1.0000000   6.0000000   1.0000000   1.0000000
 Leave Link  101 at Mon Aug  3 17:24:01 2020, MaxMem=  6442450944 cpu:               2.4 elap:               0.1
 (Enter /scratch/scicomp/CentOS/7.3.1611/Haswell/software/Gaussian/g16/l202.exe)
                          Input orientation:                          
 ---------------------------------------------------------------------
 Center     Atomic      Atomic             Coordinates (Angstroms)
 Number     Number       Type             X           Y           Z
 ---------------------------------------------------------------------
      1          6           0       -3.127681   -0.441423    0.258958
      2          6           0       -0.708381   -0.245534   -1.202422
      3          1           0       -4.076548   -0.536846    0.774111
      4          1           0        0.248962   -0.160472   -1.700991
      5          6           0        1.152306    1.422704    0.772430
      6          6           0        0.708381    0.245534    1.202422
      7          1           0        0.558988    2.319273    0.905524
      8          1           0       -0.248962    0.160472    1.700991
      9          6           0        1.545018   -0.996200    1.092829
     10          1           0        2.059657   -1.126856    2.053246
     11          1           0        0.904290   -1.869997    0.974198
     12          6           0        2.450083    1.528310    0.106435
     13          1           0        2.850945    2.514335   -0.096069
     14          6           0        3.127681    0.441423   -0.258958
     15          1           0        4.076548    0.536846   -0.774111
     16          6           0        2.579330   -0.941931   -0.037180
     17          1           0        2.135763   -1.291670   -0.977567
     18          1           0        3.392662   -1.637636    0.178291
     19          6           0       -1.152306   -1.422704   -0.772430
     20          1           0       -0.558988   -2.319273   -0.905524
     21          6           0       -2.450083   -1.528310   -0.106435
     22          1           0       -2.850945   -2.514335    0.096069
     23          6           0       -1.545018    0.996200   -1.092829
     24          1           0       -0.904290    1.869997   -0.974198
     25          1           0       -2.059657    1.126856   -2.053246
     26          6           0       -2.579330    0.941931    0.037180
     27          1           0       -3.392662    1.637636   -0.178291
     28          1           0       -2.135763    1.291670    0.977567
 ---------------------------------------------------------------------
                    Distance matrix (angstroms):
                    1          2          3          4          5
     1  C    0.000000
     2  C    2.833199   0.000000
     3  H    1.083899   3.916133   0.000000
     4  H    3.914339   1.082734   4.997782   0.000000
     5  C    4.696479   3.185155   5.583973   3.072505   0.000000
     6  C    4.009664   2.834014   4.867352   2.967442   1.329546
     7  H    4.650916   3.553575   5.446364   3.610979   1.083317
     8  H    3.275479   2.967442   3.999472   3.453175   2.102143
     9  C    4.778832   3.302951   5.649300   3.191180   2.471432
    10  H    5.531525   4.363271   6.295817   4.278646   2.993999
    11  H    4.336955   3.158680   5.160046   3.241692   3.308187
    12  C    5.917310   3.851691   6.878050   3.311149   1.462507
    13  H    6.678811   4.637855   7.619520   4.062103   2.198027
    14  C    6.338549   4.009664   7.343375   3.275479   2.434909
    15  H    7.343375   4.867352   8.367962   3.999472   3.424577
    16  C    5.736565   3.556937   6.717365   2.968090   2.878083
    17  H    5.473185   3.038769   6.498534   2.315809   3.376019
    18  H    6.629654   4.545643   7.573364   3.949249   3.838994
    19  C    2.434909   1.329546   3.424577   2.102143   3.974189
    20  H    3.388292   2.100205   4.286193   2.438437   4.443698
    21  C    1.331906   2.424918   2.098512   3.420297   4.738997
    22  H    2.097637   3.379958   2.423284   4.287134   5.655419
    23  C    2.529607   1.501291   3.499191   2.219485   3.307061
    24  H    3.436103   2.136806   4.348873   2.445613   2.735026
    25  H    2.991064   2.105541   3.850935   2.666649   4.288202
    26  C    1.504507   2.539121   2.229688   3.497966   3.833646
    27  H    2.141002   3.435191   2.470454   4.337422   4.648312
    28  H    2.122242   3.025354   2.674231   3.869148   3.297067
                    6          7          8          9         10
     6  C    0.000000
     7  H    2.100205   0.000000
     8  H    1.082734   2.438437   0.000000
     9  C    1.501291   3.464058   2.219485   0.000000
    10  H    2.105541   3.930023   2.666649   1.097417   0.000000
    11  H    2.136806   4.204038   2.445613   1.090012   1.746847
    12  C    2.424918   2.200092   3.420297   2.857493   3.315481
    13  H    3.379958   2.508845   4.287134   3.929730   4.301623
    14  C    2.833199   3.388292   3.914339   2.529607   2.991064
    15  H    3.916133   4.286193   4.997782   3.499191   3.850935
    16  C    2.539121   3.950433   3.497966   1.532862   2.161976
    17  H    3.025354   4.367054   3.869148   2.173205   3.036245
    18  H    3.435191   4.920946   4.337422   2.159076   2.356534
    19  C    3.185155   4.443698   3.072505   3.307061   4.288202
    20  H    3.553575   5.103516   3.610979   3.189166   4.127164
    21  C    3.851691   4.988233   3.311149   4.205022   5.016288
    22  H    4.637855   5.970480   4.062103   4.756338   5.465314
    23  C    3.302951   3.189166   3.191180   4.277275   5.234390
    24  H    3.158680   2.424126   3.241692   4.299627   5.189559
    25  H    4.363271   4.127164   4.278646   5.234390   6.237888
    26  C    3.556937   3.535553   2.968090   4.677712   5.464852
    27  H    4.545643   4.153892   3.949249   5.738774   6.507684
    28  H    3.038769   2.884933   2.315809   4.335410   4.960635
                   11         12         13         14         15
    11  H    0.000000
    12  C    3.832881   0.000000
    13  H    4.915008   1.083487   0.000000
    14  C    3.436103   1.331906   2.097637   0.000000
    15  H    4.348873   2.098512   2.423284   1.083899   0.000000
    16  C    2.165629   2.477785   3.467422   1.504507   2.229688
    17  H    2.379154   3.037457   3.971674   2.122242   2.674231
    18  H    2.622871   3.304063   4.196140   2.141002   2.470454
    19  C    2.735026   4.738997   5.655419   4.696479   5.583973
    20  H    2.424126   4.988233   5.970480   4.650916   5.446364
    21  C    3.540669   5.779262   6.666632   5.917310   6.878050
    22  H    3.909996   6.666632   7.604998   6.678811   7.619520
    23  C    4.299627   4.205022   4.756338   4.778832   5.649300
    24  H    4.588547   3.540669   3.909996   4.336955   5.160046
    25  H    5.189559   5.016288   5.465314   5.531525   6.295817
    26  C    4.573899   5.063954   5.654918   5.736565   6.717365
    27  H    5.665291   5.850700   6.305394   6.629654   7.573364
    28  H    4.386123   4.673848   5.245461   5.473185   6.498534
                   16         17         18         19         20
    16  C    0.000000
    17  H    1.096994   0.000000
    18  H    1.091761   1.742267   0.000000
    19  C    3.833646   3.297067   4.648312   0.000000
    20  H    3.535553   2.884933   4.153892   1.083317   0.000000
    21  C    5.063954   4.673848   5.850700   1.462507   2.200092
    22  H    5.654918   5.245461   6.305394   2.198027   2.508845
    23  C    4.677712   4.335410   5.738774   2.471432   3.464058
    24  H    4.573899   4.386123   5.665291   3.308187   4.204038
    25  H    5.464852   4.960635   6.507684   2.993999   3.930023
    26  C    5.492380   5.315147   6.506825   2.878083   3.950433
    27  H    6.506825   6.307389   7.542889   3.838994   4.920946
    28  H    5.315147   5.361169   6.307389   3.376019   4.367054
                   21         22         23         24         25
    21  C    0.000000
    22  H    1.083487   0.000000
    23  C    2.857493   3.929730   0.000000
    24  H    3.832881   4.915008   1.090012   0.000000
    25  H    3.315481   4.301623   1.097417   1.746847   0.000000
    26  C    2.477785   3.467422   1.532862   2.165629   2.161976
    27  H    3.304063   4.196140   2.159076   2.622871   2.356534
    28  H    3.037457   3.971674   2.173205   2.379154   3.036245
                   26         27         28
    26  C    0.000000
    27  H    1.091761   0.000000
    28  H    1.096994   1.742267   0.000000
 Symmetry turned off by external request.
 Stoichiometry    C12H16
 Framework group  CI[X(C12H16)]
 Deg. of freedom    39
 Full point group                 CI      NOp   2
 Rotational constants (GHZ):           1.7818269           0.6001515           0.5384826
 Leave Link  202 at Mon Aug  3 17:24:01 2020, MaxMem=  6442450944 cpu:               0.3 elap:               0.0
 (Enter /scratch/scicomp/CentOS/7.3.1611/Haswell/software/Gaussian/g16/l301.exe)
 Standard basis: def2TZVP (5D, 7F)
 Ernie: Thresh=  0.10000D-02 Tol=  0.10000D-05 Strict=F.
   468 basis functions,   740 primitive gaussians,   528 cartesian basis functions
    44 alpha electrons       44 beta electrons
       nuclear repulsion energy       678.2227150402 Hartrees.
 IExCor= 4639 DFT=T Ex+Corr=wB97XD ExCW=0 ScaHFX=  1.000000
 ScaDFX=  1.000000  1.000000  1.000000  1.000000 ScalE2=  1.000000  1.000000
 IRadAn=      5 IRanWt=     -1 IRanGd=            0 ICorTp=0 IEmpDi=121
 HFx  wShort=  0.000000 wLong=  0.200000 cFull=  0.222036 cShort=  0.000000 cLong=  0.777964
 DFx  wShort=  0.000000 wLong=  0.200000 cFull=  0.000000 cShort=  0.000000 cLong=  1.000000
 NAtoms=   28 NActive=   28 NUniq=   28 SFac= 1.00D+00 NAtFMM=   60 NAOKFM=F Big=F
 Integral buffers will be    131072 words long.
 Raffenetti 2 integral format.
 Two-electron integral symmetry is turned off.
 R6Disp:  Grimme-D2 Dispersion energy=       -0.0224280950 Hartrees.
 Nuclear repulsion after empirical dispersion term =      678.2002869452 Hartrees.
 Using the following non-standard input for PCM:
 qrep pcmdoc geomview  nodis nocav g03defaults tsare=0.075
 Warning! Using old PCM defaults because the g03defaults keyword was found.
 These settings can be overridden by following keywords.
 nsfe=28
 NVESolv=36  SolvMW=84.1595   Rsolv=2.815
 eps=2.0165 RhoS=0.7781
 --- end of non-standard input.
 Reading user-defined spheres from input:
 ISph  on   Nord    Re0     Alpha      Xe            Ye            Ze
 --- end of user-defined spheres data.
 ------------------------------------------------------------------------------
 Polarizable Continuum Model (PCM)
 =================================
 Model                : PCM.
 Atomic radii         : UA0 (Simple United Atom Topological Model).
 Polarization charges : Total charges.
 Charge compensation  : None.
 Solution method      : On-the-fly selection.
 Cavity type          : SES (Solvent Excluding Surface) (Alpha=1.000).
 Cavity algorithm     : GePol (RMin=0.200 OFac=0.890).
                        User-defined sphere list used, NSphG=   28.
                        Tesserae with average area of 0.075 Ang**2.
                        Smoothing algorithm: None.
                        Polarization charges: point-like.
                        Self-potential: constant (ISelfS= 1).
                        Self-field    : global E.n sum rule (ISelfD= 3).
 Solvent              : CycloHexane, Eps=   2.016500 Eps(inf)=   2.035188
                        RSolv=   2.815000 Ang.
 ------------------------------------------------------------------------------
 GePol: Number of generator spheres                  =      28
 GePol: Total number of spheres                      =     467
 GePol: Number of exposed spheres                    =     290 ( 62.10%)
 GePol: Number of tesserae                           =    4590
 GePol: Average area of tesserae                     =       0.04 Ang**2
 GePol: Minimum area of tessera                      =   0.10D-02 Ang**2
 GePol: Maximum area of tessera                      =    0.12655 Ang**2
 GePol: Number of small tesserae                     =       0
 GePol: Fraction of small tesserae (<1% of avg)      =       0.00%
 GePol: Total count of vertices                      =   17221
 GePol: Maximum number of vertices in a tessera      =       9
 GePol: Cavity surface area                          =    186.320 Ang**2
 GePol: Cavity volume                                =    184.194 Ang**3
 Leave Link  301 at Mon Aug  3 17:24:01 2020, MaxMem=  6442450944 cpu:              11.9 elap:               0.5
 (Enter /scratch/scicomp/CentOS/7.3.1611/Haswell/software/Gaussian/g16/l302.exe)
 NPDir=0 NMtPBC=     1 NCelOv=     1 NCel=       1 NClECP=     1 NCelD=      1
         NCelK=      1 NCelE2=     1 NClLst=     1 CellRange=     0.0.
 One-electron integrals computed using PRISM.
   1 Symmetry operations used in ECPInt.
 ECPInt:  NShTT=   19306 NPrTT=   56928 LenC2=   18480 LenP2D=   41966.
 LDataN:  DoStor=T MaxTD1= 6 Len=  172
 NBasis=   468 RedAO= T EigKep=  2.37D-05  NBF=   468
 NBsUse=   468 1.00D-06 EigRej= -1.00D+00 NBFU=   468
 Precomputing XC quadrature grid using
 IXCGrd= 4 IRadAn=           5 IRanWt=          -1 IRanGd=           0 AccXCQ= 0.00D+00.
 Generated NRdTot=       0 NPtTot=           0 NUsed=           0 NTot=          32
 NSgBfM=   526   526   526   526   526 MxSgAt=    28 MxSgA2=    28.
 Leave Link  302 at Mon Aug  3 17:24:02 2020, MaxMem=  6442450944 cpu:              11.7 elap:               0.5
 (Enter /scratch/scicomp/CentOS/7.3.1611/Haswell/software/Gaussian/g16/l401.exe)
 ExpMin= 9.52D-02 ExpMax= 1.36D+04 ExpMxC= 4.63D+02 IAcc=3 IRadAn=         5 AccDes= 0.00D+00
 Harris functional with IExCor= 4639 and IRadAn=       5 diagonalized for initial guess.
 HarFok:  IExCor= 4639 AccDes= 0.00D+00 IRadAn=         5 IDoV= 1 UseB2=F ITyADJ=14
 ICtDFT=  3500011 ScaDFX=  1.000000  1.000000  1.000000  1.000000
 FoFCou: FMM=F IPFlag=           0 FMFlag=      100000 FMFlg1=           0
         NFxFlg=           0 DoJE=T BraDBF=F KetDBF=T FulRan=T
         wScrn=  0.000000 ICntrl=       500 IOpCl=  0 I1Cent=   200000004 NGrid=           0
         NMat0=    1 NMatS0=      1 NMatT0=    0 NMatD0=    1 NMtDS0=    0 NMtDT0=    0
 Symmetry not used in FoFCou.
 Harris En= -444.632399473106    
 JPrj=0 DoOrth=F DoCkMO=T.
 Mixing orbitals, IMix= 1 IMixAn=  0 NRI=1 NE=   44 Coef=  7.07106781D-01  7.07106781D-01
 Mixing orbitals, IMix= 1 IMixAn=  0 NRI=1 NE=   44 Coef= -7.07106781D-01  7.07106781D-01
 Initial guess <Sx>= 0.0000 <Sy>= 0.0000 <Sz>= 0.0000 <S**2>= 1.0000 S= 0.6180
 Leave Link  401 at Mon Aug  3 17:24:04 2020, MaxMem=  6442450944 cpu:              47.5 elap:               2.0
 (Enter /scratch/scicomp/CentOS/7.3.1611/Haswell/software/Gaussian/g16/l9999.exe)

 This type of calculation cannot be archived.


 IMAGINATION WILL OFTEN CARRY US TO WORLDS THAT NEVER WERE.
 BUT WITHOUT IT, WE GO NOWHERE. -- CARL SAGAN (COSMOS)
 Job cpu time:       0 days  0 hours  1 minutes 17.1 seconds.
 Elapsed time:       0 days  0 hours  0 minutes  3.5 seconds.
 File lengths (MBytes):  RWF=    387 Int=      0 D2E=      0 Chk=      1 Scr=      1
 Normal termination of Gaussian 16 at Mon Aug  3 17:24:04 2020.
